<?xml version="1.0" encoding="ISO-8859-1"?>
<modeling>
 <generator>
  <i name="program" type="string">vasp </i>
  <i name="version" type="string">5.4.1  </i>
  <i name="subversion" type="string">24Jun15 (build Apr 12 2016 17:40:41) complex                          parallel </i>
  <i name="platform" type="string">IFC91_craympich </i>
  <i name="date" type="string">2016 09 22 </i>
  <i name="time" type="string">20:31:26 </i>
 </generator>
 <incar>
  <i type="string" name="SYSTEM"> system</i>
  <i type="int" name="ISTART">     0</i>
  <i type="string" name="PREC">acc</i>
  <i type="string" name="ALGO"> Normal</i>
  <i type="int" name="ISPIN">     2</i>
  <i type="int" name="ICHARG">     2</i>
  <i type="int" name="NELM">    60</i>
  <i type="int" name="NELMIN">     5</i>
  <i type="int" name="IBRION">     2</i>
  <i name="EDIFF">      0.00000100</i>
  <i name="EDIFFG">     -0.01000000</i>
  <i type="int" name="NSW">    60</i>
  <i type="int" name="ISIF">     3</i>
  <i name="ENCUT">    520.00000000</i>
  <i type="logical" name="LREAL"> F  </i>
  <i type="logical" name="LPLANE"> T  </i>
  <i type="int" name="ISMEAR">     1</i>
  <i name="SIGMA">      0.20000000</i>
  <i name="KSPACING">      0.20000000</i>
  <i type="logical" name="KGAMMA"> T  </i>
  <i type="logical" name="LWAVE"> T  </i>
  <i type="logical" name="LCHARG"> T  </i>
  <v type="int" name="KPOINT_BSE">    -1     0     0     0</v>
  <i type="int" name="NELM">    60</i>
 </incar>
 <kpoints>
  <generation param="Gamma">
   <v type="int" name="divisions">      11       12       11 </v>
   <v name="usershift">      0.00000000       0.00000000       0.00000000 </v>
   <v name="genvec1">      0.09090909       0.00000000      -0.00000000 </v>
   <v name="genvec2">      0.00000000       0.08333333      -0.00000000 </v>
   <v name="genvec3">      0.00000000       0.00000000       0.09090909 </v>
   <v name="shift">      0.00000000       0.00000000       0.00000000 </v>
  </generation>
  <varray name="kpointlist" >
   <v>       0.00000000       0.00000000       0.00000000 </v>
   <v>       0.09090909       0.00000000       0.00000000 </v>
   <v>       0.18181818       0.00000000       0.00000000 </v>
   <v>       0.27272727       0.00000000      -0.00000000 </v>
   <v>       0.36363636       0.00000000       0.00000000 </v>
   <v>       0.45454545      -0.00000000       0.00000000 </v>
   <v>       0.00000000       0.08333333       0.00000000 </v>
   <v>       0.09090909       0.08333333       0.00000000 </v>
   <v>       0.18181818       0.08333333       0.00000000 </v>
   <v>       0.27272727       0.08333333       0.00000000 </v>
   <v>       0.36363636       0.08333333       0.00000000 </v>
   <v>       0.45454545       0.08333333      -0.00000000 </v>
   <v>      -0.45454545       0.08333333       0.00000000 </v>
   <v>      -0.36363636       0.08333333       0.00000000 </v>
   <v>      -0.27272727       0.08333333       0.00000000 </v>
   <v>      -0.18181818       0.08333333       0.00000000 </v>
   <v>      -0.09090909       0.08333333      -0.00000000 </v>
   <v>       0.00000000       0.16666667       0.00000000 </v>
   <v>       0.09090909       0.16666667      -0.00000000 </v>
   <v>       0.18181818       0.16666667      -0.00000000 </v>
   <v>       0.27272727       0.16666667       0.00000000 </v>
   <v>       0.36363636       0.16666667       0.00000000 </v>
   <v>       0.45454545       0.16666667       0.00000000 </v>
   <v>      -0.45454545       0.16666667      -0.00000000 </v>
   <v>      -0.36363636       0.16666667      -0.00000000 </v>
   <v>      -0.27272727       0.16666667      -0.00000000 </v>
   <v>      -0.18181818       0.16666667       0.00000000 </v>
   <v>      -0.09090909       0.16666667      -0.00000000 </v>
   <v>       0.00000000       0.25000000       0.00000000 </v>
   <v>       0.09090909       0.25000000       0.00000000 </v>
   <v>       0.18181818       0.25000000      -0.00000000 </v>
   <v>       0.27272727       0.25000000       0.00000000 </v>
   <v>       0.36363636       0.25000000       0.00000000 </v>
   <v>       0.45454545       0.25000000      -0.00000000 </v>
   <v>      -0.45454545       0.25000000       0.00000000 </v>
   <v>      -0.36363636       0.25000000       0.00000000 </v>
   <v>      -0.27272727       0.25000000       0.00000000 </v>
   <v>      -0.18181818       0.25000000       0.00000000 </v>
   <v>      -0.09090909       0.25000000       0.00000000 </v>
   <v>       0.00000000       0.33333333      -0.00000000 </v>
   <v>       0.09090909       0.33333333       0.00000000 </v>
   <v>       0.18181818       0.33333333      -0.00000000 </v>
   <v>       0.27272727       0.33333333      -0.00000000 </v>
   <v>       0.36363636       0.33333333      -0.00000000 </v>
   <v>       0.45454545       0.33333333      -0.00000000 </v>
   <v>      -0.45454545       0.33333333      -0.00000000 </v>
   <v>      -0.36363636       0.33333333      -0.00000000 </v>
   <v>      -0.27272727       0.33333333      -0.00000000 </v>
   <v>      -0.18181818       0.33333333      -0.00000000 </v>
   <v>      -0.09090909       0.33333333      -0.00000000 </v>
   <v>       0.00000000       0.41666667       0.00000000 </v>
   <v>       0.09090909       0.41666667       0.00000000 </v>
   <v>       0.18181818       0.41666667       0.00000000 </v>
   <v>       0.27272727       0.41666667       0.00000000 </v>
   <v>       0.36363636       0.41666667       0.00000000 </v>
   <v>       0.45454545       0.41666667       0.00000000 </v>
   <v>      -0.45454545       0.41666667       0.00000000 </v>
   <v>      -0.36363636       0.41666667      -0.00000000 </v>
   <v>      -0.27272727       0.41666667      -0.00000000 </v>
   <v>      -0.18181818       0.41666667       0.00000000 </v>
   <v>      -0.09090909       0.41666667       0.00000000 </v>
   <v>       0.00000000       0.50000000       0.00000000 </v>
   <v>       0.09090909       0.50000000      -0.00000000 </v>
   <v>       0.18181818       0.50000000       0.00000000 </v>
   <v>       0.27272727       0.50000000       0.00000000 </v>
   <v>       0.36363636       0.50000000      -0.00000000 </v>
   <v>       0.45454545       0.50000000      -0.00000000 </v>
   <v>       0.09090909       0.00000000       0.09090909 </v>
   <v>       0.18181818       0.00000000       0.09090909 </v>
   <v>       0.27272727       0.00000000       0.09090909 </v>
   <v>       0.36363636       0.00000000       0.09090909 </v>
   <v>       0.45454545      -0.00000000       0.09090909 </v>
   <v>      -0.45454545       0.00000000       0.09090909 </v>
   <v>      -0.36363636       0.00000000       0.09090909 </v>
   <v>      -0.27272727       0.00000000       0.09090909 </v>
   <v>      -0.18181818       0.00000000       0.09090909 </v>
   <v>      -0.09090909       0.00000000       0.09090909 </v>
   <v>       0.09090909       0.08333333       0.09090909 </v>
   <v>       0.18181818       0.08333333       0.09090909 </v>
   <v>       0.27272727       0.08333333       0.09090909 </v>
   <v>       0.36363636       0.08333333       0.09090909 </v>
   <v>       0.45454545       0.08333333       0.09090909 </v>
   <v>      -0.45454545       0.08333333       0.09090909 </v>
   <v>      -0.36363636       0.08333333       0.09090909 </v>
   <v>      -0.27272727       0.08333333       0.09090909 </v>
   <v>      -0.18181818       0.08333333       0.09090909 </v>
   <v>      -0.09090909       0.08333333       0.09090909 </v>
   <v>       0.09090909       0.16666667       0.09090909 </v>
   <v>       0.18181818       0.16666667       0.09090909 </v>
   <v>       0.27272727       0.16666667       0.09090909 </v>
   <v>       0.36363636       0.16666667       0.09090909 </v>
   <v>       0.45454545       0.16666667       0.09090909 </v>
   <v>      -0.45454545       0.16666667       0.09090909 </v>
   <v>      -0.36363636       0.16666667       0.09090909 </v>
   <v>      -0.27272727       0.16666667       0.09090909 </v>
   <v>      -0.18181818       0.16666667       0.09090909 </v>
   <v>      -0.09090909       0.16666667       0.09090909 </v>
   <v>       0.09090909       0.25000000       0.09090909 </v>
   <v>       0.18181818       0.25000000       0.09090909 </v>
   <v>       0.27272727       0.25000000       0.09090909 </v>
   <v>       0.36363636       0.25000000       0.09090909 </v>
   <v>       0.45454545       0.25000000       0.09090909 </v>
   <v>      -0.45454545       0.25000000       0.09090909 </v>
   <v>      -0.36363636       0.25000000       0.09090909 </v>
   <v>      -0.27272727       0.25000000       0.09090909 </v>
   <v>      -0.18181818       0.25000000       0.09090909 </v>
   <v>      -0.09090909       0.25000000       0.09090909 </v>
   <v>       0.09090909       0.33333333       0.09090909 </v>
   <v>       0.18181818       0.33333333       0.09090909 </v>
   <v>       0.27272727       0.33333333       0.09090909 </v>
   <v>       0.36363636       0.33333333       0.09090909 </v>
   <v>       0.45454545       0.33333333       0.09090909 </v>
   <v>      -0.45454545       0.33333333       0.09090909 </v>
   <v>      -0.36363636       0.33333333       0.09090909 </v>
   <v>      -0.27272727       0.33333333       0.09090909 </v>
   <v>      -0.18181818       0.33333333       0.09090909 </v>
   <v>      -0.09090909       0.33333333       0.09090909 </v>
   <v>       0.09090909       0.41666667       0.09090909 </v>
   <v>       0.18181818       0.41666667       0.09090909 </v>
   <v>       0.27272727       0.41666667       0.09090909 </v>
   <v>       0.36363636       0.41666667       0.09090909 </v>
   <v>       0.45454545       0.41666667       0.09090909 </v>
   <v>      -0.45454545       0.41666667       0.09090909 </v>
   <v>      -0.36363636       0.41666667       0.09090909 </v>
   <v>      -0.27272727       0.41666667       0.09090909 </v>
   <v>      -0.18181818       0.41666667       0.09090909 </v>
   <v>      -0.09090909       0.41666667       0.09090909 </v>
   <v>       0.09090909       0.50000000       0.09090909 </v>
   <v>       0.18181818       0.50000000       0.09090909 </v>
   <v>       0.27272727       0.50000000       0.09090909 </v>
   <v>       0.36363636       0.50000000       0.09090909 </v>
   <v>       0.45454545       0.50000000       0.09090909 </v>
   <v>      -0.45454545       0.50000000       0.09090909 </v>
   <v>      -0.36363636       0.50000000       0.09090909 </v>
   <v>      -0.27272727       0.50000000       0.09090909 </v>
   <v>      -0.18181818       0.50000000       0.09090909 </v>
   <v>      -0.09090909       0.50000000       0.09090909 </v>
   <v>       0.09090909      -0.41666667       0.09090909 </v>
   <v>       0.18181818      -0.41666667       0.09090909 </v>
   <v>       0.27272727      -0.41666667       0.09090909 </v>
   <v>       0.36363636      -0.41666667       0.09090909 </v>
   <v>       0.45454545      -0.41666667       0.09090909 </v>
   <v>      -0.45454545      -0.41666667       0.09090909 </v>
   <v>      -0.36363636      -0.41666667       0.09090909 </v>
   <v>      -0.27272727      -0.41666667       0.09090909 </v>
   <v>      -0.18181818      -0.41666667       0.09090909 </v>
   <v>       0.09090909      -0.33333333       0.09090909 </v>
   <v>       0.18181818      -0.33333333       0.09090909 </v>
   <v>       0.27272727      -0.33333333       0.09090909 </v>
   <v>       0.36363636      -0.33333333       0.09090909 </v>
   <v>       0.45454545      -0.33333333       0.09090909 </v>
   <v>      -0.45454545      -0.33333333       0.09090909 </v>
   <v>      -0.36363636      -0.33333333       0.09090909 </v>
   <v>      -0.27272727      -0.33333333       0.09090909 </v>
   <v>      -0.18181818      -0.33333333       0.09090909 </v>
   <v>       0.09090909      -0.25000000       0.09090909 </v>
   <v>       0.18181818      -0.25000000       0.09090909 </v>
   <v>       0.27272727      -0.25000000       0.09090909 </v>
   <v>       0.36363636      -0.25000000       0.09090909 </v>
   <v>       0.45454545      -0.25000000       0.09090909 </v>
   <v>      -0.45454545      -0.25000000       0.09090909 </v>
   <v>      -0.36363636      -0.25000000       0.09090909 </v>
   <v>      -0.27272727      -0.25000000       0.09090909 </v>
   <v>      -0.18181818      -0.25000000       0.09090909 </v>
   <v>       0.09090909      -0.16666667       0.09090909 </v>
   <v>       0.18181818      -0.16666667       0.09090909 </v>
   <v>       0.27272727      -0.16666667       0.09090909 </v>
   <v>       0.36363636      -0.16666667       0.09090909 </v>
   <v>       0.45454545      -0.16666667       0.09090909 </v>
   <v>      -0.45454545      -0.16666667       0.09090909 </v>
   <v>      -0.36363636      -0.16666667       0.09090909 </v>
   <v>      -0.27272727      -0.16666667       0.09090909 </v>
   <v>      -0.18181818      -0.16666667       0.09090909 </v>
   <v>       0.09090909      -0.08333333       0.09090909 </v>
   <v>       0.18181818      -0.08333333       0.09090909 </v>
   <v>       0.27272727      -0.08333333       0.09090909 </v>
   <v>       0.36363636      -0.08333333       0.09090909 </v>
   <v>       0.45454545      -0.08333333       0.09090909 </v>
   <v>      -0.45454545      -0.08333333       0.09090909 </v>
   <v>      -0.36363636      -0.08333333       0.09090909 </v>
   <v>      -0.27272727      -0.08333333       0.09090909 </v>
   <v>      -0.18181818      -0.08333333       0.09090909 </v>
   <v>       0.18181818       0.00000000       0.18181818 </v>
   <v>       0.27272727       0.00000000       0.18181818 </v>
   <v>       0.36363636       0.00000000       0.18181818 </v>
   <v>       0.45454545      -0.00000000       0.18181818 </v>
   <v>      -0.45454545       0.00000000       0.18181818 </v>
   <v>      -0.36363636       0.00000000       0.18181818 </v>
   <v>      -0.27272727       0.00000000       0.18181818 </v>
   <v>      -0.18181818       0.00000000       0.18181818 </v>
   <v>       0.18181818       0.08333333       0.18181818 </v>
   <v>       0.27272727       0.08333333       0.18181818 </v>
   <v>       0.36363636       0.08333333       0.18181818 </v>
   <v>       0.45454545       0.08333333       0.18181818 </v>
   <v>      -0.45454545       0.08333333       0.18181818 </v>
   <v>      -0.36363636       0.08333333       0.18181818 </v>
   <v>      -0.27272727       0.08333333       0.18181818 </v>
   <v>      -0.18181818       0.08333333       0.18181818 </v>
   <v>       0.18181818       0.16666667       0.18181818 </v>
   <v>       0.27272727       0.16666667       0.18181818 </v>
   <v>       0.36363636       0.16666667       0.18181818 </v>
   <v>       0.45454545       0.16666667       0.18181818 </v>
   <v>      -0.45454545       0.16666667       0.18181818 </v>
   <v>      -0.36363636       0.16666667       0.18181818 </v>
   <v>      -0.27272727       0.16666667       0.18181818 </v>
   <v>      -0.18181818       0.16666667       0.18181818 </v>
   <v>       0.18181818       0.25000000       0.18181818 </v>
   <v>       0.27272727       0.25000000       0.18181818 </v>
   <v>       0.36363636       0.25000000       0.18181818 </v>
   <v>       0.45454545       0.25000000       0.18181818 </v>
   <v>      -0.45454545       0.25000000       0.18181818 </v>
   <v>      -0.36363636       0.25000000       0.18181818 </v>
   <v>      -0.27272727       0.25000000       0.18181818 </v>
   <v>      -0.18181818       0.25000000       0.18181818 </v>
   <v>       0.18181818       0.33333333       0.18181818 </v>
   <v>       0.27272727       0.33333333       0.18181818 </v>
   <v>       0.36363636       0.33333333       0.18181818 </v>
   <v>       0.45454545       0.33333333       0.18181818 </v>
   <v>      -0.45454545       0.33333333       0.18181818 </v>
   <v>      -0.36363636       0.33333333       0.18181818 </v>
   <v>      -0.27272727       0.33333333       0.18181818 </v>
   <v>      -0.18181818       0.33333333       0.18181818 </v>
   <v>       0.18181818       0.41666667       0.18181818 </v>
   <v>       0.27272727       0.41666667       0.18181818 </v>
   <v>       0.36363636       0.41666667       0.18181818 </v>
   <v>       0.45454545       0.41666667       0.18181818 </v>
   <v>      -0.45454545       0.41666667       0.18181818 </v>
   <v>      -0.36363636       0.41666667       0.18181818 </v>
   <v>      -0.27272727       0.41666667       0.18181818 </v>
   <v>      -0.18181818       0.41666667       0.18181818 </v>
   <v>       0.18181818       0.50000000       0.18181818 </v>
   <v>       0.27272727       0.50000000       0.18181818 </v>
   <v>       0.36363636       0.50000000       0.18181818 </v>
   <v>       0.45454545       0.50000000       0.18181818 </v>
   <v>      -0.45454545       0.50000000       0.18181818 </v>
   <v>      -0.36363636       0.50000000       0.18181818 </v>
   <v>      -0.27272727       0.50000000       0.18181818 </v>
   <v>      -0.18181818       0.50000000       0.18181818 </v>
   <v>       0.18181818      -0.41666667       0.18181818 </v>
   <v>       0.27272727      -0.41666667       0.18181818 </v>
   <v>       0.36363636      -0.41666667       0.18181818 </v>
   <v>       0.45454545      -0.41666667       0.18181818 </v>
   <v>      -0.45454545      -0.41666667       0.18181818 </v>
   <v>      -0.36363636      -0.41666667       0.18181818 </v>
   <v>      -0.27272727      -0.41666667       0.18181818 </v>
   <v>       0.18181818      -0.33333333       0.18181818 </v>
   <v>       0.27272727      -0.33333333       0.18181818 </v>
   <v>       0.36363636      -0.33333333       0.18181818 </v>
   <v>       0.45454545      -0.33333333       0.18181818 </v>
   <v>      -0.45454545      -0.33333333       0.18181818 </v>
   <v>      -0.36363636      -0.33333333       0.18181818 </v>
   <v>      -0.27272727      -0.33333333       0.18181818 </v>
   <v>       0.18181818      -0.25000000       0.18181818 </v>
   <v>       0.27272727      -0.25000000       0.18181818 </v>
   <v>       0.36363636      -0.25000000       0.18181818 </v>
   <v>       0.45454545      -0.25000000       0.18181818 </v>
   <v>      -0.45454545      -0.25000000       0.18181818 </v>
   <v>      -0.36363636      -0.25000000       0.18181818 </v>
   <v>      -0.27272727      -0.25000000       0.18181818 </v>
   <v>       0.18181818      -0.16666667       0.18181818 </v>
   <v>       0.27272727      -0.16666667       0.18181818 </v>
   <v>       0.36363636      -0.16666667       0.18181818 </v>
   <v>       0.45454545      -0.16666667       0.18181818 </v>
   <v>      -0.45454545      -0.16666667       0.18181818 </v>
   <v>      -0.36363636      -0.16666667       0.18181818 </v>
   <v>      -0.27272727      -0.16666667       0.18181818 </v>
   <v>       0.18181818      -0.08333333       0.18181818 </v>
   <v>       0.27272727      -0.08333333       0.18181818 </v>
   <v>       0.36363636      -0.08333333       0.18181818 </v>
   <v>       0.45454545      -0.08333333       0.18181818 </v>
   <v>      -0.45454545      -0.08333333       0.18181818 </v>
   <v>      -0.36363636      -0.08333333       0.18181818 </v>
   <v>      -0.27272727      -0.08333333       0.18181818 </v>
   <v>       0.27272727       0.00000000       0.27272727 </v>
   <v>       0.36363636       0.00000000       0.27272727 </v>
   <v>       0.45454545      -0.00000000       0.27272727 </v>
   <v>      -0.45454545       0.00000000       0.27272727 </v>
   <v>      -0.36363636       0.00000000       0.27272727 </v>
   <v>      -0.27272727       0.00000000       0.27272727 </v>
   <v>       0.27272727       0.08333333       0.27272727 </v>
   <v>       0.36363636       0.08333333       0.27272727 </v>
   <v>       0.45454545       0.08333333       0.27272727 </v>
   <v>      -0.45454545       0.08333333       0.27272727 </v>
   <v>      -0.36363636       0.08333333       0.27272727 </v>
   <v>      -0.27272727       0.08333333       0.27272727 </v>
   <v>       0.27272727       0.16666667       0.27272727 </v>
   <v>       0.36363636       0.16666667       0.27272727 </v>
   <v>       0.45454545       0.16666667       0.27272727 </v>
   <v>      -0.45454545       0.16666667       0.27272727 </v>
   <v>      -0.36363636       0.16666667       0.27272727 </v>
   <v>      -0.27272727       0.16666667       0.27272727 </v>
   <v>       0.27272727       0.25000000       0.27272727 </v>
   <v>       0.36363636       0.25000000       0.27272727 </v>
   <v>       0.45454545       0.25000000       0.27272727 </v>
   <v>      -0.45454545       0.25000000       0.27272727 </v>
   <v>      -0.36363636       0.25000000       0.27272727 </v>
   <v>      -0.27272727       0.25000000       0.27272727 </v>
   <v>       0.27272727       0.33333333       0.27272727 </v>
   <v>       0.36363636       0.33333333       0.27272727 </v>
   <v>       0.45454545       0.33333333       0.27272727 </v>
   <v>      -0.45454545       0.33333333       0.27272727 </v>
   <v>      -0.36363636       0.33333333       0.27272727 </v>
   <v>      -0.27272727       0.33333333       0.27272727 </v>
   <v>       0.27272727       0.41666667       0.27272727 </v>
   <v>       0.36363636       0.41666667       0.27272727 </v>
   <v>       0.45454545       0.41666667       0.27272727 </v>
   <v>      -0.45454545       0.41666667       0.27272727 </v>
   <v>      -0.36363636       0.41666667       0.27272727 </v>
   <v>      -0.27272727       0.41666667       0.27272727 </v>
   <v>       0.27272727       0.50000000       0.27272727 </v>
   <v>       0.36363636       0.50000000       0.27272727 </v>
   <v>       0.45454545       0.50000000       0.27272727 </v>
   <v>      -0.45454545       0.50000000       0.27272727 </v>
   <v>      -0.36363636       0.50000000       0.27272727 </v>
   <v>      -0.27272727       0.50000000       0.27272727 </v>
   <v>       0.27272727      -0.41666667       0.27272727 </v>
   <v>       0.36363636      -0.41666667       0.27272727 </v>
   <v>       0.45454545      -0.41666667       0.27272727 </v>
   <v>      -0.45454545      -0.41666667       0.27272727 </v>
   <v>      -0.36363636      -0.41666667       0.27272727 </v>
   <v>       0.27272727      -0.33333333       0.27272727 </v>
   <v>       0.36363636      -0.33333333       0.27272727 </v>
   <v>       0.45454545      -0.33333333       0.27272727 </v>
   <v>      -0.45454545      -0.33333333       0.27272727 </v>
   <v>      -0.36363636      -0.33333333       0.27272727 </v>
   <v>       0.27272727      -0.25000000       0.27272727 </v>
   <v>       0.36363636      -0.25000000       0.27272727 </v>
   <v>       0.45454545      -0.25000000       0.27272727 </v>
   <v>      -0.45454545      -0.25000000       0.27272727 </v>
   <v>      -0.36363636      -0.25000000       0.27272727 </v>
   <v>       0.27272727      -0.16666667       0.27272727 </v>
   <v>       0.36363636      -0.16666667       0.27272727 </v>
   <v>       0.45454545      -0.16666667       0.27272727 </v>
   <v>      -0.45454545      -0.16666667       0.27272727 </v>
   <v>      -0.36363636      -0.16666667       0.27272727 </v>
   <v>       0.27272727      -0.08333333       0.27272727 </v>
   <v>       0.36363636      -0.08333333       0.27272727 </v>
   <v>       0.45454545      -0.08333333       0.27272727 </v>
   <v>      -0.45454545      -0.08333333       0.27272727 </v>
   <v>      -0.36363636      -0.08333333       0.27272727 </v>
   <v>       0.36363636       0.00000000       0.36363636 </v>
   <v>       0.45454545      -0.00000000       0.36363636 </v>
   <v>      -0.45454545       0.00000000       0.36363636 </v>
   <v>      -0.36363636       0.00000000       0.36363636 </v>
   <v>       0.36363636       0.08333333       0.36363636 </v>
   <v>       0.45454545       0.08333333       0.36363636 </v>
   <v>      -0.45454545       0.08333333       0.36363636 </v>
   <v>      -0.36363636       0.08333333       0.36363636 </v>
   <v>       0.36363636       0.16666667       0.36363636 </v>
   <v>       0.45454545       0.16666667       0.36363636 </v>
   <v>      -0.45454545       0.16666667       0.36363636 </v>
   <v>      -0.36363636       0.16666667       0.36363636 </v>
   <v>       0.36363636       0.25000000       0.36363636 </v>
   <v>       0.45454545       0.25000000       0.36363636 </v>
   <v>      -0.45454545       0.25000000       0.36363636 </v>
   <v>      -0.36363636       0.25000000       0.36363636 </v>
   <v>       0.36363636       0.33333333       0.36363636 </v>
   <v>       0.45454545       0.33333333       0.36363636 </v>
   <v>      -0.45454545       0.33333333       0.36363636 </v>
   <v>      -0.36363636       0.33333333       0.36363636 </v>
   <v>       0.36363636       0.41666667       0.36363636 </v>
   <v>       0.45454545       0.41666667       0.36363636 </v>
   <v>      -0.45454545       0.41666667       0.36363636 </v>
   <v>      -0.36363636       0.41666667       0.36363636 </v>
   <v>       0.36363636       0.50000000       0.36363636 </v>
   <v>       0.45454545       0.50000000       0.36363636 </v>
   <v>      -0.45454545       0.50000000       0.36363636 </v>
   <v>      -0.36363636       0.50000000       0.36363636 </v>
   <v>       0.36363636      -0.41666667       0.36363636 </v>
   <v>       0.45454545      -0.41666667       0.36363636 </v>
   <v>      -0.45454545      -0.41666667       0.36363636 </v>
   <v>       0.36363636      -0.33333333       0.36363636 </v>
   <v>       0.45454545      -0.33333333       0.36363636 </v>
   <v>      -0.45454545      -0.33333333       0.36363636 </v>
   <v>       0.36363636      -0.25000000       0.36363636 </v>
   <v>       0.45454545      -0.25000000       0.36363636 </v>
   <v>      -0.45454545      -0.25000000       0.36363636 </v>
   <v>       0.36363636      -0.16666667       0.36363636 </v>
   <v>       0.45454545      -0.16666667       0.36363636 </v>
   <v>      -0.45454545      -0.16666667       0.36363636 </v>
   <v>       0.36363636      -0.08333333       0.36363636 </v>
   <v>       0.45454545      -0.08333333       0.36363636 </v>
   <v>      -0.45454545      -0.08333333       0.36363636 </v>
   <v>       0.45454545      -0.00000000       0.45454545 </v>
   <v>      -0.45454545       0.00000000       0.45454545 </v>
   <v>       0.45454545       0.08333333       0.45454545 </v>
   <v>      -0.45454545       0.08333333       0.45454545 </v>
   <v>       0.45454545       0.16666667       0.45454545 </v>
   <v>      -0.45454545       0.16666667       0.45454545 </v>
   <v>       0.45454545       0.25000000       0.45454545 </v>
   <v>      -0.45454545       0.25000000       0.45454545 </v>
   <v>       0.45454545       0.33333333       0.45454545 </v>
   <v>      -0.45454545       0.33333333       0.45454545 </v>
   <v>       0.45454545       0.41666667       0.45454545 </v>
   <v>      -0.45454545       0.41666667       0.45454545 </v>
   <v>       0.45454545       0.50000000       0.45454545 </v>
   <v>      -0.45454545       0.50000000       0.45454545 </v>
   <v>       0.45454545      -0.41666667       0.45454545 </v>
   <v>       0.45454545      -0.33333333       0.45454545 </v>
   <v>       0.45454545      -0.25000000       0.45454545 </v>
   <v>       0.45454545      -0.16666667       0.45454545 </v>
   <v>       0.45454545      -0.08333333       0.45454545 </v>
  </varray>
  <varray name="weights" >
   <v>       0.00068871 </v>
   <v>       0.00275482 </v>
   <v>       0.00275482 </v>
   <v>       0.00275482 </v>
   <v>       0.00275482 </v>
   <v>       0.00275482 </v>
   <v>       0.00137741 </v>
   <v>       0.00275482 </v>
   <v>       0.00275482 </v>
   <v>       0.00275482 </v>
   <v>       0.00275482 </v>
   <v>       0.00275482 </v>
   <v>       0.00275482 </v>
   <v>       0.00275482 </v>
   <v>       0.00275482 </v>
   <v>       0.00275482 </v>
   <v>       0.00275482 </v>
   <v>       0.00137741 </v>
   <v>       0.00275482 </v>
   <v>       0.00275482 </v>
   <v>       0.00275482 </v>
   <v>       0.00275482 </v>
   <v>       0.00275482 </v>
   <v>       0.00275482 </v>
   <v>       0.00275482 </v>
   <v>       0.00275482 </v>
   <v>       0.00275482 </v>
   <v>       0.00275482 </v>
   <v>       0.00137741 </v>
   <v>       0.00275482 </v>
   <v>       0.00275482 </v>
   <v>       0.00275482 </v>
   <v>       0.00275482 </v>
   <v>       0.00275482 </v>
   <v>       0.00275482 </v>
   <v>       0.00275482 </v>
   <v>       0.00275482 </v>
   <v>       0.00275482 </v>
   <v>       0.00275482 </v>
   <v>       0.00137741 </v>
   <v>       0.00275482 </v>
   <v>       0.00275482 </v>
   <v>       0.00275482 </v>
   <v>       0.00275482 </v>
   <v>       0.00275482 </v>
   <v>       0.00275482 </v>
   <v>       0.00275482 </v>
   <v>       0.00275482 </v>
   <v>       0.00275482 </v>
   <v>       0.00275482 </v>
   <v>       0.00137741 </v>
   <v>       0.00275482 </v>
   <v>       0.00275482 </v>
   <v>       0.00275482 </v>
   <v>       0.00275482 </v>
   <v>       0.00275482 </v>
   <v>       0.00275482 </v>
   <v>       0.00275482 </v>
   <v>       0.00275482 </v>
   <v>       0.00275482 </v>
   <v>       0.00275482 </v>
   <v>       0.00068871 </v>
   <v>       0.00275482 </v>
   <v>       0.00275482 </v>
   <v>       0.00275482 </v>
   <v>       0.00275482 </v>
   <v>       0.00275482 </v>
   <v>       0.00137741 </v>
   <v>       0.00275482 </v>
   <v>       0.00275482 </v>
   <v>       0.00275482 </v>
   <v>       0.00275482 </v>
   <v>       0.00275482 </v>
   <v>       0.00275482 </v>
   <v>       0.00275482 </v>
   <v>       0.00275482 </v>
   <v>       0.00137741 </v>
   <v>       0.00137741 </v>
   <v>       0.00275482 </v>
   <v>       0.00275482 </v>
   <v>       0.00275482 </v>
   <v>       0.00275482 </v>
   <v>       0.00275482 </v>
   <v>       0.00275482 </v>
   <v>       0.00275482 </v>
   <v>       0.00275482 </v>
   <v>       0.00275482 </v>
   <v>       0.00137741 </v>
   <v>       0.00275482 </v>
   <v>       0.00275482 </v>
   <v>       0.00275482 </v>
   <v>       0.00275482 </v>
   <v>       0.00275482 </v>
   <v>       0.00275482 </v>
   <v>       0.00275482 </v>
   <v>       0.00275482 </v>
   <v>       0.00275482 </v>
   <v>       0.00137741 </v>
   <v>       0.00275482 </v>
   <v>       0.00275482 </v>
   <v>       0.00275482 </v>
   <v>       0.00275482 </v>
   <v>       0.00275482 </v>
   <v>       0.00275482 </v>
   <v>       0.00275482 </v>
   <v>       0.00275482 </v>
   <v>       0.00275482 </v>
   <v>       0.00137741 </v>
   <v>       0.00275482 </v>
   <v>       0.00275482 </v>
   <v>       0.00275482 </v>
   <v>       0.00275482 </v>
   <v>       0.00275482 </v>
   <v>       0.00275482 </v>
   <v>       0.00275482 </v>
   <v>       0.00275482 </v>
   <v>       0.00275482 </v>
   <v>       0.00137741 </v>
   <v>       0.00275482 </v>
   <v>       0.00275482 </v>
   <v>       0.00275482 </v>
   <v>       0.00275482 </v>
   <v>       0.00275482 </v>
   <v>       0.00275482 </v>
   <v>       0.00275482 </v>
   <v>       0.00275482 </v>
   <v>       0.00275482 </v>
   <v>       0.00137741 </v>
   <v>       0.00275482 </v>
   <v>       0.00275482 </v>
   <v>       0.00275482 </v>
   <v>       0.00275482 </v>
   <v>       0.00275482 </v>
   <v>       0.00275482 </v>
   <v>       0.00275482 </v>
   <v>       0.00275482 </v>
   <v>       0.00137741 </v>
   <v>       0.00137741 </v>
   <v>       0.00275482 </v>
   <v>       0.00275482 </v>
   <v>       0.00275482 </v>
   <v>       0.00275482 </v>
   <v>       0.00275482 </v>
   <v>       0.00275482 </v>
   <v>       0.00275482 </v>
   <v>       0.00275482 </v>
   <v>       0.00137741 </v>
   <v>       0.00275482 </v>
   <v>       0.00275482 </v>
   <v>       0.00275482 </v>
   <v>       0.00275482 </v>
   <v>       0.00275482 </v>
   <v>       0.00275482 </v>
   <v>       0.00275482 </v>
   <v>       0.00275482 </v>
   <v>       0.00137741 </v>
   <v>       0.00275482 </v>
   <v>       0.00275482 </v>
   <v>       0.00275482 </v>
   <v>       0.00275482 </v>
   <v>       0.00275482 </v>
   <v>       0.00275482 </v>
   <v>       0.00275482 </v>
   <v>       0.00275482 </v>
   <v>       0.00137741 </v>
   <v>       0.00275482 </v>
   <v>       0.00275482 </v>
   <v>       0.00275482 </v>
   <v>       0.00275482 </v>
   <v>       0.00275482 </v>
   <v>       0.00275482 </v>
   <v>       0.00275482 </v>
   <v>       0.00275482 </v>
   <v>       0.00137741 </v>
   <v>       0.00275482 </v>
   <v>       0.00275482 </v>
   <v>       0.00275482 </v>
   <v>       0.00275482 </v>
   <v>       0.00275482 </v>
   <v>       0.00275482 </v>
   <v>       0.00275482 </v>
   <v>       0.00275482 </v>
   <v>       0.00137741 </v>
   <v>       0.00275482 </v>
   <v>       0.00275482 </v>
   <v>       0.00275482 </v>
   <v>       0.00275482 </v>
   <v>       0.00275482 </v>
   <v>       0.00275482 </v>
   <v>       0.00137741 </v>
   <v>       0.00137741 </v>
   <v>       0.00275482 </v>
   <v>       0.00275482 </v>
   <v>       0.00275482 </v>
   <v>       0.00275482 </v>
   <v>       0.00275482 </v>
   <v>       0.00275482 </v>
   <v>       0.00275482 </v>
   <v>       0.00137741 </v>
   <v>       0.00275482 </v>
   <v>       0.00275482 </v>
   <v>       0.00275482 </v>
   <v>       0.00275482 </v>
   <v>       0.00275482 </v>
   <v>       0.00275482 </v>
   <v>       0.00275482 </v>
   <v>       0.00137741 </v>
   <v>       0.00275482 </v>
   <v>       0.00275482 </v>
   <v>       0.00275482 </v>
   <v>       0.00275482 </v>
   <v>       0.00275482 </v>
   <v>       0.00275482 </v>
   <v>       0.00275482 </v>
   <v>       0.00137741 </v>
   <v>       0.00275482 </v>
   <v>       0.00275482 </v>
   <v>       0.00275482 </v>
   <v>       0.00275482 </v>
   <v>       0.00275482 </v>
   <v>       0.00275482 </v>
   <v>       0.00275482 </v>
   <v>       0.00137741 </v>
   <v>       0.00275482 </v>
   <v>       0.00275482 </v>
   <v>       0.00275482 </v>
   <v>       0.00275482 </v>
   <v>       0.00275482 </v>
   <v>       0.00275482 </v>
   <v>       0.00275482 </v>
   <v>       0.00137741 </v>
   <v>       0.00275482 </v>
   <v>       0.00275482 </v>
   <v>       0.00275482 </v>
   <v>       0.00275482 </v>
   <v>       0.00275482 </v>
   <v>       0.00275482 </v>
   <v>       0.00137741 </v>
   <v>       0.00137741 </v>
   <v>       0.00275482 </v>
   <v>       0.00275482 </v>
   <v>       0.00275482 </v>
   <v>       0.00275482 </v>
   <v>       0.00275482 </v>
   <v>       0.00275482 </v>
   <v>       0.00137741 </v>
   <v>       0.00275482 </v>
   <v>       0.00275482 </v>
   <v>       0.00275482 </v>
   <v>       0.00275482 </v>
   <v>       0.00275482 </v>
   <v>       0.00275482 </v>
   <v>       0.00137741 </v>
   <v>       0.00275482 </v>
   <v>       0.00275482 </v>
   <v>       0.00275482 </v>
   <v>       0.00275482 </v>
   <v>       0.00275482 </v>
   <v>       0.00275482 </v>
   <v>       0.00137741 </v>
   <v>       0.00275482 </v>
   <v>       0.00275482 </v>
   <v>       0.00275482 </v>
   <v>       0.00275482 </v>
   <v>       0.00275482 </v>
   <v>       0.00275482 </v>
   <v>       0.00137741 </v>
   <v>       0.00275482 </v>
   <v>       0.00275482 </v>
   <v>       0.00275482 </v>
   <v>       0.00275482 </v>
   <v>       0.00275482 </v>
   <v>       0.00275482 </v>
   <v>       0.00137741 </v>
   <v>       0.00275482 </v>
   <v>       0.00275482 </v>
   <v>       0.00275482 </v>
   <v>       0.00275482 </v>
   <v>       0.00137741 </v>
   <v>       0.00137741 </v>
   <v>       0.00275482 </v>
   <v>       0.00275482 </v>
   <v>       0.00275482 </v>
   <v>       0.00275482 </v>
   <v>       0.00275482 </v>
   <v>       0.00137741 </v>
   <v>       0.00275482 </v>
   <v>       0.00275482 </v>
   <v>       0.00275482 </v>
   <v>       0.00275482 </v>
   <v>       0.00275482 </v>
   <v>       0.00137741 </v>
   <v>       0.00275482 </v>
   <v>       0.00275482 </v>
   <v>       0.00275482 </v>
   <v>       0.00275482 </v>
   <v>       0.00275482 </v>
   <v>       0.00137741 </v>
   <v>       0.00275482 </v>
   <v>       0.00275482 </v>
   <v>       0.00275482 </v>
   <v>       0.00275482 </v>
   <v>       0.00275482 </v>
   <v>       0.00137741 </v>
   <v>       0.00275482 </v>
   <v>       0.00275482 </v>
   <v>       0.00275482 </v>
   <v>       0.00275482 </v>
   <v>       0.00275482 </v>
   <v>       0.00137741 </v>
   <v>       0.00275482 </v>
   <v>       0.00275482 </v>
   <v>       0.00275482 </v>
   <v>       0.00275482 </v>
   <v>       0.00137741 </v>
   <v>       0.00137741 </v>
   <v>       0.00275482 </v>
   <v>       0.00275482 </v>
   <v>       0.00275482 </v>
   <v>       0.00275482 </v>
   <v>       0.00137741 </v>
   <v>       0.00275482 </v>
   <v>       0.00275482 </v>
   <v>       0.00275482 </v>
   <v>       0.00275482 </v>
   <v>       0.00137741 </v>
   <v>       0.00275482 </v>
   <v>       0.00275482 </v>
   <v>       0.00275482 </v>
   <v>       0.00275482 </v>
   <v>       0.00137741 </v>
   <v>       0.00275482 </v>
   <v>       0.00275482 </v>
   <v>       0.00275482 </v>
   <v>       0.00275482 </v>
   <v>       0.00137741 </v>
   <v>       0.00275482 </v>
   <v>       0.00275482 </v>
   <v>       0.00275482 </v>
   <v>       0.00275482 </v>
   <v>       0.00137741 </v>
   <v>       0.00275482 </v>
   <v>       0.00275482 </v>
   <v>       0.00137741 </v>
   <v>       0.00137741 </v>
   <v>       0.00275482 </v>
   <v>       0.00275482 </v>
   <v>       0.00275482 </v>
   <v>       0.00137741 </v>
   <v>       0.00275482 </v>
   <v>       0.00275482 </v>
   <v>       0.00275482 </v>
   <v>       0.00137741 </v>
   <v>       0.00275482 </v>
   <v>       0.00275482 </v>
   <v>       0.00275482 </v>
   <v>       0.00137741 </v>
   <v>       0.00275482 </v>
   <v>       0.00275482 </v>
   <v>       0.00275482 </v>
   <v>       0.00137741 </v>
   <v>       0.00275482 </v>
   <v>       0.00275482 </v>
   <v>       0.00275482 </v>
   <v>       0.00137741 </v>
   <v>       0.00275482 </v>
   <v>       0.00275482 </v>
   <v>       0.00137741 </v>
   <v>       0.00137741 </v>
   <v>       0.00275482 </v>
   <v>       0.00275482 </v>
   <v>       0.00137741 </v>
   <v>       0.00275482 </v>
   <v>       0.00275482 </v>
   <v>       0.00137741 </v>
   <v>       0.00275482 </v>
   <v>       0.00275482 </v>
   <v>       0.00137741 </v>
   <v>       0.00275482 </v>
   <v>       0.00275482 </v>
   <v>       0.00137741 </v>
   <v>       0.00275482 </v>
   <v>       0.00275482 </v>
   <v>       0.00137741 </v>
   <v>       0.00137741 </v>
   <v>       0.00137741 </v>
   <v>       0.00275482 </v>
   <v>       0.00137741 </v>
   <v>       0.00275482 </v>
   <v>       0.00137741 </v>
   <v>       0.00275482 </v>
   <v>       0.00137741 </v>
   <v>       0.00275482 </v>
   <v>       0.00137741 </v>
   <v>       0.00275482 </v>
   <v>       0.00137741 </v>
   <v>       0.00137741 </v>
   <v>       0.00137741 </v>
   <v>       0.00137741 </v>
   <v>       0.00137741 </v>
   <v>       0.00137741 </v>
   <v>       0.00137741 </v>
  </varray>
 </kpoints>
 <parameters>
  <separator name="general" >
   <i type="string" name="SYSTEM">system</i>
   <i type="logical" name="LCOMPAT"> F  </i>
  </separator>
  <separator name="electronic" >
   <i type="string" name="PREC">acc</i>
   <i name="ENMAX">    520.00000000</i>
   <i name="ENAUG">    613.61400000</i>
   <i name="EDIFF">      0.00000100</i>
   <i type="int" name="IALGO">    38</i>
   <i type="int" name="IWAVPR">    11</i>
   <i type="int" name="NBANDS">    18</i>
   <i name="NELECT">     24.00000000</i>
   <i type="int" name="TURBO">     0</i>
   <i type="int" name="IRESTART">     0</i>
   <i type="int" name="NREBOOT">     0</i>
   <i type="int" name="NMIN">     0</i>
   <i name="EREF">      0.00000000</i>
   <separator name="electronic smearing" >
    <i type="int" name="ISMEAR">     1</i>
    <i name="SIGMA">      0.20000000</i>
    <i name="KSPACING">      0.20000000</i>
    <i type="logical" name="KGAMMA"> T  </i>
   </separator>
   <separator name="electronic projectors" >
    <i type="logical" name="LREAL"> F  </i>
    <v name="ROPT">      0.00000000      0.00000000</v>
    <i type="int" name="LMAXPAW">  -100</i>
    <i type="int" name="LMAXMIX">     2</i>
    <i type="logical" name="NLSPLINE"> F  </i>
   </separator>
   <separator name="electronic startup" >
    <i type="int" name="ISTART">     0</i>
    <i type="int" name="ICHARG">     2</i>
    <i type="int" name="INIWAV">     1</i>
   </separator>
   <separator name="electronic spin" >
    <i type="int" name="ISPIN">     2</i>
    <i type="logical" name="LNONCOLLINEAR"> F  </i>
    <v name="MAGMOM">      1.00000000      1.00000000      1.00000000</v>
    <i name="NUPDOWN">     -1.00000000</i>
    <i type="logical" name="LSORBIT"> F  </i>
    <v name="SAXIS">      0.00000000      0.00000000      1.00000000</v>
    <i type="logical" name="LSPIRAL"> F  </i>
    <v name="QSPIRAL">      0.00000000      0.00000000      0.00000000</v>
    <i type="logical" name="LZEROZ"> F  </i>
   </separator>
   <separator name="electronic exchange-correlation" >
    <i type="logical" name="LASPH"> F  </i>
    <i type="logical" name="LMETAGGA"> F  </i>
   </separator>
   <separator name="electronic convergence" >
    <i type="int" name="NELM">    60</i>
    <i type="int" name="NELMDL">    -5</i>
    <i type="int" name="NELMIN">     5</i>
    <i name="ENINI">    520.00000000</i>
    <separator name="electronic convergence detail" >
     <i type="logical" name="LDIAG"> T  </i>
     <i type="logical" name="LSUBROT"> F  </i>
     <i name="WEIMIN">      0.00100000</i>
     <i name="EBREAK">      0.00000001</i>
     <i name="DEPER">      0.30000000</i>
     <i type="int" name="NRMM">     4</i>
     <i name="TIME">      0.40000000</i>
    </separator>
   </separator>
   <separator name="electronic mixer" >
    <i name="AMIX">      0.40000000</i>
    <i name="BMIX">      1.00000000</i>
    <i name="AMIN">      0.10000000</i>
    <i name="AMIX_MAG">      1.60000000</i>
    <i name="BMIX_MAG">      1.00000000</i>
    <separator name="electronic mixer details" >
     <i type="int" name="IMIX">     4</i>
     <i type="logical" name="MIXFIRST"> F  </i>
     <i type="int" name="MAXMIX">   -45</i>
     <i name="WC">    100.00000000</i>
     <i type="int" name="INIMIX">     1</i>
     <i type="int" name="MIXPRE">     1</i>
     <i type="int" name="MREMOVE">     5</i>
    </separator>
   </separator>
   <separator name="electronic dipolcorrection" >
    <i type="logical" name="LDIPOL"> F  </i>
    <i type="logical" name="LMONO"> F  </i>
    <i type="int" name="IDIPOL">     0</i>
    <i name="EPSILON">      1.00000000</i>
    <v name="DIPOL">   -100.00000000   -100.00000000   -100.00000000</v>
    <i name="EFIELD">      0.00000000</i>
   </separator>
  </separator>
  <separator name="grids" >
   <i type="int" name="NGX">    28</i>
   <i type="int" name="NGY">    28</i>
   <i type="int" name="NGZ">    28</i>
   <i type="int" name="NGXF">    56</i>
   <i type="int" name="NGYF">    56</i>
   <i type="int" name="NGZF">    56</i>
   <i type="logical" name="ADDGRID"> F  </i>
  </separator>
  <separator name="ionic" >
   <i type="int" name="NSW">    60</i>
   <i type="int" name="IBRION">     2</i>
   <i type="int" name="ISIF">     3</i>
   <i name="PSTRESS">      0.00000000</i>
   <i name="EDIFFG">     -0.01000000</i>
   <i type="int" name="NFREE">     1</i>
   <i name="POTIM">      0.50000000</i>
   <i name="SMASS">     -3.00000000</i>
   <i name="SCALEE">      1.00000000</i>
  </separator>
  <separator name="ionic md" >
   <i name="TEBEG">      0.00010000</i>
   <i name="TEEND">      0.00010000</i>
   <i type="int" name="NBLOCK">     1</i>
   <i type="int" name="KBLOCK">    60</i>
   <i type="int" name="NPACO">   256</i>
   <i name="APACO">     16.00000000</i>
  </separator>
  <separator name="symmetry" >
   <i type="int" name="ISYM">     2</i>
   <i name="SYMPREC">      0.00001000</i>
  </separator>
  <separator name="dos" >
   <i type="logical" name="LORBIT"> F  </i>
   <v name="RWIGS">     -1.00000000     -1.00000000</v>
   <i type="int" name="NEDOS">   301</i>
   <i name="EMIN">     10.00000000</i>
   <i name="EMAX">    -10.00000000</i>
   <i name="EFERMI">      0.00000000</i>
  </separator>
  <separator name="writing" >
   <i type="int" name="NWRITE">     2</i>
   <i type="logical" name="LWAVE"> T  </i>
   <i type="logical" name="LCHARG"> T  </i>
   <i type="logical" name="LPARD"> F  </i>
   <i type="logical" name="LVTOT"> F  </i>
   <i type="logical" name="LVHAR"> F  </i>
   <i type="logical" name="LELF"> F  </i>
   <i type="logical" name="LOPTICS"> F  </i>
   <v name="STM">      0.00000000      0.00000000      0.00000000      0.00000000      0.00000000      0.00000000      0.00000000</v>
  </separator>
  <separator name="performance" >
   <i type="int" name="NPAR">     1</i>
   <i type="int" name="NSIM">     4</i>
   <i type="int" name="NBLK">    -1</i>
   <i type="logical" name="LPLANE"> T  </i>
   <i type="logical" name="LSCALAPACK"> F  </i>
   <i type="logical" name="LSCAAWARE"> F  </i>
   <i type="logical" name="LSCALU"> F  </i>
   <i type="logical" name="LASYNC"> F  </i>
   <i type="logical" name="LORBITALREAL"> F  </i>
  </separator>
  <separator name="miscellaneous" >
   <i type="int" name="IDIOT">     3</i>
   <i type="logical" name="LMUSIC"> F  </i>
   <v name="POMASS">     40.07800000     18.99800000</v>
   <v name="DARWINR">      0.00000000      0.00000000</v>
   <v name="DARWINV">      1.00000000      1.00000000</v>
   <i type="logical" name="LCORR"> T  </i>
  </separator>
  <i type="logical" name="GGA_COMPAT"> T  </i>
  <i type="logical" name="LBERRY"> F  </i>
  <i type="int" name="ICORELEVEL">     0</i>
  <i type="logical" name="LDAU"> F  </i>
  <i type="int" name="I_CONSTRAINED_M">     0</i>
  <separator name="electronic exchange-correlation" >
   <i type="string" name="GGA">--</i>
   <i type="int" name="VOSKOWN">     0</i>
   <i type="logical" name="LHFCALC"> F  </i>
   <i type="string" name="PRECFOCK"></i>
   <i type="logical" name="LSYMGRAD"> F  </i>
   <i type="logical" name="LHFONE"> F  </i>
   <i type="logical" name="LRHFCALC"> F  </i>
   <i type="logical" name="LTHOMAS"> F  </i>
   <i type="logical" name="LMODELHF"> F  </i>
   <i name="ENCUT4O">     -1.00000000</i>
   <i type="int" name="EXXOEP">     0</i>
   <i type="int" name="FOURORBIT">     0</i>
   <i name="AEXX">      0.00000000</i>
   <i name="HFALPHA">      0.00000000</i>
   <i name="MCALPHA">      0.00000000</i>
   <i name="ALDAX">      1.00000000</i>
   <i name="AGGAX">      1.00000000</i>
   <i name="ALDAC">      1.00000000</i>
   <i name="AGGAC">      1.00000000</i>
   <i type="int" name="NKREDX">     1</i>
   <i type="int" name="NKREDY">     1</i>
   <i type="int" name="NKREDZ">     1</i>
   <i type="logical" name="SHIFTRED"> F  </i>
   <i type="logical" name="ODDONLY"> F  </i>
   <i type="logical" name="EVENONLY"> F  </i>
   <i type="int" name="LMAXFOCK">     0</i>
   <i type="int" name="NMAXFOCKAE">     0</i>
   <i type="logical" name="LFOCKAEDFT"> F  </i>
   <i name="HFSCREEN">      0.00000000</i>
   <i name="HFSCREENC">      0.00000000</i>
   <i type="int" name="NBANDSGWLOW">     0</i>
  </separator>
  <separator name="vdW DFT" >
   <i type="logical" name="LUSE_VDW"> F  </i>
   <i name="Zab_VDW">     -0.84910000</i>
   <i name="PARAM1">      0.12340000</i>
   <i name="PARAM2">      1.00000000</i>
   <i name="PARAM3">      0.00000000</i>
  </separator>
  <separator name="model GW" >
   <i type="int" name="MODEL_GW">     0</i>
   <i name="MODEL_EPS0">      7.77327742</i>
   <i name="MODEL_ALPHA">      1.00000000</i>
  </separator>
  <separator name="linear response parameters" >
   <i type="logical" name="LEPSILON"> F  </i>
   <i type="logical" name="LRPA"> F  </i>
   <i type="logical" name="LNABLA"> F  </i>
   <i type="logical" name="LVEL"> F  </i>
   <i type="int" name="KINTER">     0</i>
   <i name="CSHIFT">      0.10000000</i>
   <i name="OMEGAMAX">     -1.00000000</i>
   <i name="DEG_THRESHOLD">      0.00200000</i>
  </separator>
  <separator name="orbital magnetization" >
   <i type="logical" name="NUCIND"> F  </i>
   <v name="MAGPOS">      0.00000000      0.00000000      0.00000000</v>
   <i type="logical" name="LNICSALL"> T  </i>
   <i type="logical" name="ORBITALMAG"> F  </i>
   <i type="logical" name="LMAGBLOCH"> F  </i>
   <i type="logical" name="LCHIMAG"> F  </i>
   <i type="logical" name="LGAUGE"> T  </i>
   <i type="int" name="MAGATOM">     0</i>
   <v name="MAGDIPOL">      0.00000000      0.00000000      0.00000000</v>
   <v name="AVECCONST">      0.00000000      0.00000000      0.00000000</v>
  </separator>
  <separator name="response functions" >
   <i type="logical" name="LADDER"> F  </i>
   <i type="logical" name="LFXC"> F  </i>
   <i type="logical" name="LHARTREE"> T  </i>
   <i type="int" name="IBSE">     0</i>
   <v type="int" name="KPOINT">    -1     0     0     0</v>
   <i type="logical" name="LTCTE"> F  </i>
   <i type="logical" name="LTETE"> F  </i>
   <i type="logical" name="LTRIPLET"> F  </i>
   <i type="logical" name="LFXCEPS"> F  </i>
   <i type="logical" name="LFXHEG"> F  </i>
   <i type="int" name="NATURALO">     0</i>
   <i type="logical" name="L2ORDER"> F  </i>
   <i type="logical" name="LUSEW"> F  </i>
   <i name="ENCUTGW">     -2.00000000</i>
   <i name="ENCUTGWSOFT">     -2.00000000</i>
   <i name="ENCUTLF">     -1.00000000</i>
   <i type="int" name="LMAXMP2">    -1</i>
   <i name="SCISSOR">      0.00000000</i>
   <i type="int" name="NOMEGA">     0</i>
   <i type="int" name="NOMEGAR">     0</i>
   <i type="int" name="NBANDSGW">    -1</i>
   <i type="int" name="NBANDSO">    -1</i>
   <i type="int" name="NBANDSV">    -1</i>
   <i type="int" name="NELM">    60</i>
   <i type="int" name="NELMHF">     1</i>
   <i type="int" name="DIM">     3</i>
   <i type="int" name="ANTIRES">     0</i>
   <i name="OMEGAMAX">    -30.00000000</i>
   <i name="OMEGAMIN">    -30.00000000</i>
   <i name="OMEGATL">   -200.00000000</i>
   <i type="int" name="OMEGAGRID">     0</i>
   <i name="CSHIFT">     -0.10000000</i>
   <i type="logical" name="SELFENERGY"> F  </i>
   <i type="logical" name="LSPECTRAL"> F  </i>
   <i type="logical" name="LSPECTRALGW"> F  </i>
   <i type="logical" name="LSINGLES"> F  </i>
   <i type="logical" name="LFERMIGW"> F  </i>
   <i type="logical" name="ODDONLYGW"> F  </i>
   <i type="logical" name="EVENONLYGW"> F  </i>
   <i type="int" name="NKREDLFX">     1</i>
   <i type="int" name="NKREDLFY">     1</i>
   <i type="int" name="NKREDLFZ">     1</i>
   <i type="int" name="MAXMEM">  1800</i>
   <i type="int" name="TELESCOPE">     0</i>
   <i type="int" name="TAUPAR">     1</i>
   <i type="int" name="OMEGAPAR">    -1</i>
   <i name="LAMBDA">      1.00000000</i>
  </separator>
  <separator name="External order field" >
   <i name="OFIELD_KAPPA">      0.00000000</i>
   <v name="OFIELD_K">      0.00000000      0.00000000      0.00000000</v>
   <i name="OFIELD_Q6_NEAR">      0.00000000</i>
   <i name="OFIELD_Q6_FAR">      0.00000000</i>
   <i name="OFIELD_A">      0.00000000</i>
  </separator>
 </parameters>
 <atominfo>
  <atoms>       3 </atoms>
  <types>       2 </types>
  <array name="atoms" >
   <dimension dim="1">ion</dimension>
   <field type="string">element</field>
   <field type="int">atomtype</field>
   <set>
    <rc><c>Ca</c><c>   1</c></rc>
    <rc><c>F </c><c>   2</c></rc>
    <rc><c>F </c><c>   2</c></rc>
   </set>
  </array>
  <array name="atomtypes" >
   <dimension dim="1">type</dimension>
   <field type="int">atomspertype</field>
   <field type="string">element</field>
   <field>mass</field>
   <field>valence</field>
   <field type="string">pseudopotential</field>
   <set>
    <rc><c>   1</c><c>Ca</c><c>     40.07800000</c><c>     10.00000000</c><c> PAW_PBE Ca_sv 06Sep2000                </c></rc>
    <rc><c>   2</c><c>F </c><c>     18.99800000</c><c>      7.00000000</c><c> PAW_PBE F 08Apr2002                    </c></rc>
   </set>
  </array>
 </atominfo>
 <structure name="initialpos" >
  <crystal>
   <varray name="basis" >
    <v>       3.80215417       0.00000000       0.00000000 </v>
    <v>      -1.90107709       3.29276210       0.00000000 </v>
    <v>       0.00000000      -2.19517474       3.10444588 </v>
   </varray>
   <i name="volume">     38.86638710 </i>
   <varray name="rec_basis" >
    <v>       0.26300880       0.15184820       0.10737289 </v>
    <v>       0.00000000       0.30369640       0.21474578 </v>
    <v>       0.00000000       0.00000000       0.32211868 </v>
   </varray>
  </crystal>
  <varray name="positions" >
   <v>       0.99999888       0.99999888       0.99999888 </v>
   <v>       0.74999888       0.49999888       0.24999888 </v>
   <v>       0.24999888       0.49999888       0.74999888 </v>
  </varray>
 </structure>
 <calculation>
  <scstep>
   <time name="dav">    2.16    2.16</time>
   <time name="total">    2.22    2.23</time>
   <energy>
    <i name="alphaZ">    109.35827313 </i>
    <i name="ewald">  -1659.20957350 </i>
    <i name="hartreedc">   -588.29606642 </i>
    <i name="XCdc">    117.40658299 </i>
    <i name="pawpsdc">   1480.14137198 </i>
    <i name="pawaedc">  -1480.33498280 </i>
    <i name="eentropy">      0.00015618 </i>
    <i name="bandstr">    -84.99148988 </i>
    <i name="atom">   2324.64646711 </i>
    <i name="e_fr_energy">    218.72073878 </i>
    <i name="e_wo_entrp">    218.72058260 </i>
    <i name="e_0_energy">    218.72068672 </i>
   </energy>
  </scstep>
  <scstep>
   <time name="dav">    2.51    2.51</time>
   <time name="total">    2.52    2.53</time>
   <energy>
    <i name="e_fr_energy">     -7.07222494 </i>
    <i name="e_wo_entrp">     -7.07240181 </i>
    <i name="e_0_energy">     -7.07228390 </i>
   </energy>
  </scstep>
  <scstep>
   <time name="dav">    2.28    2.29</time>
   <time name="total">    2.29    2.30</time>
   <energy>
    <i name="e_fr_energy">    -17.43446515 </i>
    <i name="e_wo_entrp">    -17.44497979 </i>
    <i name="e_0_energy">    -17.43797003 </i>
   </energy>
  </scstep>
  <scstep>
   <time name="dav">    3.26    3.26</time>
   <time name="total">    3.27    3.28</time>
   <energy>
    <i name="e_fr_energy">    -17.80765790 </i>
    <i name="e_wo_entrp">    -17.81814703 </i>
    <i name="e_0_energy">    -17.81115428 </i>
   </energy>
  </scstep>
  <scstep>
   <time name="dav">    2.32    2.33</time>
   <time name="total">    2.50    2.51</time>
   <energy>
    <i name="e_fr_energy">    -17.81060551 </i>
    <i name="e_wo_entrp">    -17.82109469 </i>
    <i name="e_0_energy">    -17.81410191 </i>
   </energy>
  </scstep>
  <scstep>
   <time name="dav">    2.30    2.31</time>
   <time name="total">    2.52    2.53</time>
   <energy>
    <i name="e_fr_energy">    -17.37808572 </i>
    <i name="e_wo_entrp">    -17.38587588 </i>
    <i name="e_0_energy">    -17.38068244 </i>
   </energy>
  </scstep>
  <scstep>
   <time name="dav">    2.32    2.32</time>
   <time name="total">    2.53    2.54</time>
   <energy>
    <i name="e_fr_energy">    -17.46955265 </i>
    <i name="e_wo_entrp">    -17.48446975 </i>
    <i name="e_0_energy">    -17.47452502 </i>
   </energy>
  </scstep>
  <scstep>
   <time name="dav">    2.17    2.17</time>
   <time name="total">    2.39    2.40</time>
   <energy>
    <i name="e_fr_energy">    -17.48232684 </i>
    <i name="e_wo_entrp">    -17.49867973 </i>
    <i name="e_0_energy">    -17.48777781 </i>
   </energy>
  </scstep>
  <scstep>
   <time name="dav">    2.23    2.23</time>
   <time name="total">    2.45    2.46</time>
   <energy>
    <i name="e_fr_energy">    -17.49733708 </i>
    <i name="e_wo_entrp">    -17.51353460 </i>
    <i name="e_0_energy">    -17.50273625 </i>
   </energy>
  </scstep>
  <scstep>
   <time name="dav">    2.76    2.76</time>
   <time name="total">    2.98    3.02</time>
   <energy>
    <i name="e_fr_energy">    -17.49931789 </i>
    <i name="e_wo_entrp">    -17.51553770 </i>
    <i name="e_0_energy">    -17.50472450 </i>
   </energy>
  </scstep>
  <scstep>
   <time name="dav">    2.22    2.22</time>
   <time name="total">    2.44    2.44</time>
   <energy>
    <i name="e_fr_energy">    -17.50023178 </i>
    <i name="e_wo_entrp">    -17.51643848 </i>
    <i name="e_0_energy">    -17.50563401 </i>
   </energy>
  </scstep>
  <scstep>
   <time name="dav">    2.33    2.33</time>
   <time name="total">    2.55    2.56</time>
   <energy>
    <i name="e_fr_energy">    -17.50044289 </i>
    <i name="e_wo_entrp">    -17.51665111 </i>
    <i name="e_0_energy">    -17.50584563 </i>
   </energy>
  </scstep>
  <scstep>
   <time name="dav">    2.58    2.58</time>
   <time name="total">    2.80    2.80</time>
   <energy>
    <i name="e_fr_energy">    -17.50044814 </i>
    <i name="e_wo_entrp">    -17.51666440 </i>
    <i name="e_0_energy">    -17.50585356 </i>
   </energy>
  </scstep>
  <scstep>
   <time name="dav">    2.30    2.30</time>
   <time name="total">    2.52    2.55</time>
   <energy>
    <i name="e_fr_energy">    -17.50045063 </i>
    <i name="e_wo_entrp">    -17.51666717 </i>
    <i name="e_0_energy">    -17.50585614 </i>
   </energy>
  </scstep>
  <scstep>
   <time name="dav">    2.16    2.16</time>
   <time name="total">    2.22    2.24</time>
   <energy>
    <i name="alphaZ">    109.35827313 </i>
    <i name="ewald">  -1659.20957350 </i>
    <i name="hartreedc">   -618.49433867 </i>
    <i name="XCdc">    118.87041367 </i>
    <i name="pawpsdc">   1596.16787958 </i>
    <i name="pawaedc">  -1606.35490094 </i>
    <i name="eentropy">      0.01621571 </i>
    <i name="bandstr">   -282.50088756 </i>
    <i name="atom">   2324.64646711 </i>
    <i name="e_fr_energy">    -17.50045148 </i>
    <i name="e_wo_entrp">    -17.51666719 </i>
    <i name="e_0_energy">    -17.50585671 </i>
   </energy>
  </scstep>
  <structure>
   <crystal>
    <varray name="basis" >
     <v>       3.80215417       0.00000000       0.00000000 </v>
     <v>      -1.90107709       3.29276210       0.00000000 </v>
     <v>       0.00000000      -2.19517474       3.10444588 </v>
    </varray>
    <i name="volume">     38.86638710 </i>
    <varray name="rec_basis" >
     <v>       0.26300880       0.15184820       0.10737289 </v>
     <v>       0.00000000       0.30369640       0.21474578 </v>
     <v>       0.00000000       0.00000000       0.32211868 </v>
    </varray>
   </crystal>
   <varray name="positions" >
    <v>       0.99999888       0.99999888       0.99999888 </v>
    <v>       0.74999888       0.49999888       0.24999888 </v>
    <v>       0.24999888       0.49999888       0.74999888 </v>
   </varray>
  </structure>
  <varray name="forces" >
   <v>       0.00000000       0.00000000       0.00000000 </v>
   <v>      -0.00000000       0.00000000       0.00000000 </v>
   <v>       0.00000000      -0.00000000      -0.00000000 </v>
  </varray>
  <varray name="stress" >
   <v>      70.96233651      -0.00000000      -0.00000000 </v>
   <v>      -0.00000000      70.96233651       0.00000000 </v>
   <v>      -0.00000000       0.00000000      70.96233651 </v>
  </varray>
  <energy>
   <i name="e_fr_energy">    -17.50045148 </i>
   <i name="e_wo_entrp">    -17.50585671 </i>
   <i name="e_0_energy">      0.01621571 </i>
  </energy>
  <time name="totalsc">   39.83   40.32</time>
 </calculation>
 <calculation>
  <scstep>
   <time name="dav">    2.34    2.34</time>
   <time name="total">    2.56    2.57</time>
   <energy>
    <i name="alphaZ">    100.75696409 </i>
    <i name="ewald">  -1614.51612947 </i>
    <i name="hartreedc">   -601.83357872 </i>
    <i name="XCdc">    115.81747860 </i>
    <i name="pawpsdc">   1596.17336852 </i>
    <i name="pawaedc">  -1606.36108848 </i>
    <i name="eentropy">      0.02228428 </i>
    <i name="bandstr">   -333.71543712 </i>
    <i name="atom">   2324.64646711 </i>
    <i name="e_fr_energy">    -19.00967120 </i>
    <i name="e_wo_entrp">    -19.03195548 </i>
    <i name="e_0_energy">    -19.01709929 </i>
   </energy>
  </scstep>
  <scstep>
   <time name="dav">    2.35    2.35</time>
   <time name="total">    2.56    2.57</time>
   <energy>
    <i name="e_fr_energy">    -17.70856130 </i>
    <i name="e_wo_entrp">    -17.72567948 </i>
    <i name="e_0_energy">    -17.71426736 </i>
   </energy>
  </scstep>
  <scstep>
   <time name="dav">    2.95    2.96</time>
   <time name="total">    3.17    3.20</time>
   <energy>
    <i name="e_fr_energy">    -17.57608965 </i>
    <i name="e_wo_entrp">    -17.59420138 </i>
    <i name="e_0_energy">    -17.58212689 </i>
   </energy>
  </scstep>
  <scstep>
   <time name="dav">    3.16    3.16</time>
   <time name="total">    3.38    3.44</time>
   <energy>
    <i name="e_fr_energy">    -17.55657321 </i>
    <i name="e_wo_entrp">    -17.57495194 </i>
    <i name="e_0_energy">    -17.56269946 </i>
   </energy>
  </scstep>
  <scstep>
   <time name="dav">    2.37    2.37</time>
   <time name="total">    2.58    2.62</time>
   <energy>
    <i name="e_fr_energy">    -17.55642871 </i>
    <i name="e_wo_entrp">    -17.57482016 </i>
    <i name="e_0_energy">    -17.56255920 </i>
   </energy>
  </scstep>
  <scstep>
   <time name="dav">    3.27    3.28</time>
   <time name="total">    3.49    3.52</time>
   <energy>
    <i name="e_fr_energy">    -17.56047306 </i>
    <i name="e_wo_entrp">    -17.57880743 </i>
    <i name="e_0_energy">    -17.56658451 </i>
   </energy>
  </scstep>
  <scstep>
   <time name="dav">    3.23    3.24</time>
   <time name="total">    3.45    3.48</time>
   <energy>
    <i name="e_fr_energy">    -17.56062488 </i>
    <i name="e_wo_entrp">    -17.57892857 </i>
    <i name="e_0_energy">    -17.56672611 </i>
   </energy>
  </scstep>
  <scstep>
   <time name="dav">    2.48    2.49</time>
   <time name="total">    2.70    2.74</time>
   <energy>
    <i name="e_fr_energy">    -17.56064934 </i>
    <i name="e_wo_entrp">    -17.57894236 </i>
    <i name="e_0_energy">    -17.56674702 </i>
   </energy>
  </scstep>
  <scstep>
   <time name="dav">    2.50    2.50</time>
   <time name="total">    2.72    2.74</time>
   <energy>
    <i name="e_fr_energy">    -17.56064856 </i>
    <i name="e_wo_entrp">    -17.57893438 </i>
    <i name="e_0_energy">    -17.56674383 </i>
   </energy>
  </scstep>
  <scstep>
   <time name="dav">    1.92    1.92</time>
   <time name="total">    1.98    1.98</time>
   <energy>
    <i name="alphaZ">    100.75696409 </i>
    <i name="ewald">  -1614.51612947 </i>
    <i name="hartreedc">   -642.25613893 </i>
    <i name="XCdc">    118.40667054 </i>
    <i name="pawpsdc">   1584.51733909 </i>
    <i name="pawaedc">  -1594.89156766 </i>
    <i name="eentropy">      0.01828511 </i>
    <i name="bandstr">   -294.24253904 </i>
    <i name="atom">   2324.64646711 </i>
    <i name="e_fr_energy">    -17.56064916 </i>
    <i name="e_wo_entrp">    -17.57893427 </i>
    <i name="e_0_energy">    -17.56674420 </i>
   </energy>
  </scstep>
  <structure>
   <crystal>
    <varray name="basis" >
     <v>       3.90740637      -0.00000000      -0.00000000 </v>
     <v>      -1.95370318       3.38391318       0.00000000 </v>
     <v>      -0.00000000      -2.25594212       3.19038394 </v>
    </varray>
    <i name="volume">     42.18428983 </i>
    <varray name="rec_basis" >
     <v>       0.25592424       0.14775793       0.10448063 </v>
     <v>       0.00000000       0.29551586       0.20896127 </v>
     <v>       0.00000000      -0.00000000       0.31344190 </v>
    </varray>
   </crystal>
   <varray name="positions" >
    <v>       0.99999888       0.99999888       0.99999888 </v>
    <v>       0.74999888       0.49999888       0.24999888 </v>
    <v>       0.24999888       0.49999888       0.74999888 </v>
   </varray>
  </structure>
  <varray name="forces" >
   <v>       0.00000000      -0.00000000      -0.00000000 </v>
   <v>       0.00000000      -0.00000000       0.00000000 </v>
   <v>      -0.00000000       0.00000000      -0.00000000 </v>
  </varray>
  <varray name="stress" >
   <v>      -7.90033459       0.00000000       0.00000000 </v>
   <v>       0.00000000      -7.90033459       0.00000000 </v>
   <v>       0.00000000       0.00000000      -7.90033459 </v>
  </varray>
  <energy>
   <i name="e_fr_energy">    -17.56064916 </i>
   <i name="e_wo_entrp">    -17.56674420 </i>
   <i name="e_0_energy">      0.01828511 </i>
  </energy>
  <time name="totalsc">   29.93   30.24</time>
 </calculation>
 <calculation>
  <scstep>
   <time name="dav">    2.35    2.36</time>
   <time name="total">    2.58    2.58</time>
   <energy>
    <i name="alphaZ">    101.72491300 </i>
    <i name="ewald">  -1619.66975596 </i>
    <i name="hartreedc">   -644.31036937 </i>
    <i name="XCdc">    118.76714287 </i>
    <i name="pawpsdc">   1584.52335263 </i>
    <i name="pawaedc">  -1594.89698910 </i>
    <i name="eentropy">      0.01743364 </i>
    <i name="bandstr">   -288.38439626 </i>
    <i name="atom">   2324.64646711 </i>
    <i name="e_fr_energy">    -17.58220144 </i>
    <i name="e_wo_entrp">    -17.59963508 </i>
    <i name="e_0_energy">    -17.58801266 </i>
   </energy>
  </scstep>
  <scstep>
   <time name="dav">    2.24    2.25</time>
   <time name="total">    2.46    2.47</time>
   <energy>
    <i name="e_fr_energy">    -17.56359418 </i>
    <i name="e_wo_entrp">    -17.58178428 </i>
    <i name="e_0_energy">    -17.56965755 </i>
   </energy>
  </scstep>
  <scstep>
   <time name="dav">    2.90    2.90</time>
   <time name="total">    3.12    3.12</time>
   <energy>
    <i name="e_fr_energy">    -17.56182141 </i>
    <i name="e_wo_entrp">    -17.57988731 </i>
    <i name="e_0_energy">    -17.56784338 </i>
   </energy>
  </scstep>
  <scstep>
   <time name="dav">    3.09    3.09</time>
   <time name="total">    3.30    3.31</time>
   <energy>
    <i name="e_fr_energy">    -17.56156521 </i>
    <i name="e_wo_entrp">    -17.57959259 </i>
    <i name="e_0_energy">    -17.56757433 </i>
   </energy>
  </scstep>
  <scstep>
   <time name="dav">    2.34    2.35</time>
   <time name="total">    2.57    2.57</time>
   <energy>
    <i name="e_fr_energy">    -17.56156695 </i>
    <i name="e_wo_entrp">    -17.57959403 </i>
    <i name="e_0_energy">    -17.56757598 </i>
   </energy>
  </scstep>
  <scstep>
   <time name="dav">    3.05    3.06</time>
   <time name="total">    3.27    3.28</time>
   <energy>
    <i name="e_fr_energy">    -17.56161257 </i>
    <i name="e_wo_entrp">    -17.57964307 </i>
    <i name="e_0_energy">    -17.56762274 </i>
   </energy>
  </scstep>
  <scstep>
   <time name="dav">    3.34    3.35</time>
   <time name="total">    3.56    3.57</time>
   <energy>
    <i name="e_fr_energy">    -17.56163223 </i>
    <i name="e_wo_entrp">    -17.57966648 </i>
    <i name="e_0_energy">    -17.56764365 </i>
   </energy>
  </scstep>
  <scstep>
   <time name="dav">    1.65    1.65</time>
   <time name="total">    1.87    1.90</time>
   <energy>
    <i name="e_fr_energy">    -17.56163324 </i>
    <i name="e_wo_entrp">    -17.57967032 </i>
    <i name="e_0_energy">    -17.56764560 </i>
   </energy>
  </scstep>
  <scstep>
   <time name="dav">    1.47    1.47</time>
   <time name="total">    1.53    1.55</time>
   <energy>
    <i name="alphaZ">    101.72491300 </i>
    <i name="ewald">  -1619.66975596 </i>
    <i name="hartreedc">   -639.48909821 </i>
    <i name="XCdc">    118.45899332 </i>
    <i name="pawpsdc">   1585.77274407 </i>
    <i name="pawaedc">  -1596.13319351 </i>
    <i name="eentropy">      0.01803879 </i>
    <i name="bandstr">   -292.89074226 </i>
    <i name="atom">   2324.64646711 </i>
    <i name="e_fr_energy">    -17.56163366 </i>
    <i name="e_wo_entrp">    -17.57967245 </i>
    <i name="e_0_energy">    -17.56764659 </i>
   </energy>
  </scstep>
  <structure>
   <crystal>
    <varray name="basis" >
     <v>       3.89497339      -0.00000000      -0.00000000 </v>
     <v>      -1.94748670       3.37314591       0.00000000 </v>
     <v>      -0.00000000      -2.24876394       3.18023246 </v>
    </varray>
    <i name="volume">     41.78289124 </i>
    <varray name="rec_basis" >
     <v>       0.25674116       0.14822958       0.10481414 </v>
     <v>       0.00000000       0.29645916       0.20962828 </v>
     <v>       0.00000000      -0.00000000       0.31444242 </v>
    </varray>
   </crystal>
   <varray name="positions" >
    <v>       0.99999888       0.99999888       0.99999888 </v>
    <v>       0.74999888       0.49999888       0.24999888 </v>
    <v>       0.24999888       0.49999888       0.74999888 </v>
   </varray>
  </structure>
  <varray name="forces" >
   <v>       0.00000000       0.00000000      -0.00000000 </v>
   <v>      -0.00000000      -0.00000000       0.00000000 </v>
   <v>       0.00000000      -0.00000000      -0.00000000 </v>
  </varray>
  <varray name="stress" >
   <v>      -1.07296801       0.00000000       0.00000000 </v>
   <v>       0.00000000      -1.07296801       0.00000000 </v>
   <v>       0.00000000       0.00000000      -1.07296801 </v>
  </varray>
  <energy>
   <i name="e_fr_energy">    -17.56163366 </i>
   <i name="e_wo_entrp">    -17.56764659 </i>
   <i name="e_0_energy">      0.01803879 </i>
  </energy>
  <time name="totalsc">   26.81   27.01</time>
  <eigenvalues>
   <array>
    <dimension dim="1">band</dimension>
    <dimension dim="2">kpoint</dimension>
    <dimension dim="3">spin</dimension>
    <field>eigene</field>
    <field>occ</field>
    <set>
     <set comment="spin 1">
      <set comment="kpoint 1">
       <r>  -37.1897    1.0000 </r>
       <r>  -20.9512    1.0000 </r>
       <r>  -20.2202    1.0000 </r>
       <r>  -18.1784    1.0000 </r>
       <r>  -18.1784    1.0000 </r>
       <r>  -18.1784    1.0000 </r>
       <r>   -3.1356    1.0000 </r>
       <r>   -3.1356    1.0000 </r>
       <r>   -3.1356    1.0000 </r>
       <r>   -1.3561    1.0353 </r>
       <r>   -1.3561    1.0353 </r>
       <r>   -1.3561    1.0353 </r>
       <r>    6.0392    0.0000 </r>
       <r>    7.9559    0.0000 </r>
       <r>    7.9559    0.0000 </r>
       <r>    9.9172    0.0000 </r>
       <r>    9.9172    0.0000 </r>
       <r>    9.9172    0.0000 </r>
      </set>
      <set comment="kpoint 2">
       <r>  -37.1874    1.0000 </r>
       <r>  -20.9737    1.0000 </r>
       <r>  -20.2378    1.0000 </r>
       <r>  -18.1814    1.0000 </r>
       <r>  -18.1814    1.0000 </r>
       <r>  -18.1427    1.0000 </r>
       <r>   -3.0995    1.0000 </r>
       <r>   -3.0995    1.0000 </r>
       <r>   -3.0704    1.0000 </r>
       <r>   -1.4531    1.0196 </r>
       <r>   -1.3933    1.0326 </r>
       <r>   -1.3933    1.0326 </r>
       <r>    6.2541    0.0000 </r>
       <r>    7.9723    0.0000 </r>
       <r>    7.9723    0.0000 </r>
       <r>    9.8370    0.0000 </r>
       <r>    9.8974    0.0000 </r>
       <r>    9.8974    0.0000 </r>
      </set>
      <set comment="kpoint 3">
       <r>  -37.1812    1.0000 </r>
       <r>  -21.0219    1.0000 </r>
       <r>  -20.3002    1.0000 </r>
       <r>  -18.1894    1.0000 </r>
       <r>  -18.1894    1.0000 </r>
       <r>  -18.0446    1.0000 </r>
       <r>   -2.9982    1.0000 </r>
       <r>   -2.9982    1.0000 </r>
       <r>   -2.8973    1.0000 </r>
       <r>   -1.6916    1.0002 </r>
       <r>   -1.4957    1.0113 </r>
       <r>   -1.4957    1.0113 </r>
       <r>    6.8130    0.0000 </r>
       <r>    8.0161    0.0000 </r>
       <r>    8.0161    0.0000 </r>
       <r>    9.6577    0.0000 </r>
       <r>    9.8435    0.0000 </r>
       <r>    9.8435    0.0000 </r>
      </set>
      <set comment="kpoint 4">
       <r>  -37.1731    1.0000 </r>
       <r>  -21.0631    1.0000 </r>
       <r>  -20.4052    1.0000 </r>
       <r>  -18.1998    1.0000 </r>
       <r>  -18.1998    1.0000 </r>
       <r>  -17.9122    1.0000 </r>
       <r>   -2.8518    1.0000 </r>
       <r>   -2.8518    1.0000 </r>
       <r>   -2.6751    1.0000 </r>
       <r>   -1.9657    1.0000 </r>
       <r>   -1.6396    1.0007 </r>
       <r>   -1.6396    1.0007 </r>
       <r>    7.5023    0.0000 </r>
       <r>    8.0731    0.0000 </r>
       <r>    8.0731    0.0000 </r>
       <r>    9.5238    0.0000 </r>
       <r>    9.7726    0.0000 </r>
       <r>    9.7726    0.0000 </r>
      </set>
      <set comment="kpoint 5">
       <r>  -37.1656    1.0000 </r>
       <r>  -21.0781    1.0000 </r>
       <r>  -20.5238    1.0000 </r>
       <r>  -18.2094    1.0000 </r>
       <r>  -18.2094    1.0000 </r>
       <r>  -17.7884    1.0000 </r>
       <r>   -2.6932    1.0000 </r>
       <r>   -2.6932    1.0000 </r>
       <r>   -2.4777    1.0000 </r>
       <r>   -2.1871    1.0000 </r>
       <r>   -1.7923    1.0000 </r>
       <r>   -1.7923    1.0000 </r>
       <r>    8.0827    0.0000 </r>
       <r>    8.1247    0.0000 </r>
       <r>    8.1247    0.0000 </r>
       <r>    9.5158    0.0000 </r>
       <r>    9.7075    0.0000 </r>
       <r>    9.7076    0.0000 </r>
      </set>
      <set comment="kpoint 6">
       <r>  -37.1611    1.0000 </r>
       <r>  -21.0730    1.0000 </r>
       <r>  -20.6077    1.0000 </r>
       <r>  -18.2150    1.0000 </r>
       <r>  -18.2150    1.0000 </r>
       <r>  -17.7143    1.0000 </r>
       <r>   -2.5755    1.0000 </r>
       <r>   -2.5755    1.0000 </r>
       <r>   -2.3710    1.0000 </r>
       <r>   -2.3004    1.0000 </r>
       <r>   -1.9047    1.0000 </r>
       <r>   -1.9046    1.0000 </r>
       <r>    8.1548    0.0000 </r>
       <r>    8.1548    0.0000 </r>
       <r>    8.4254    0.0000 </r>
       <r>    9.5141    0.0000 </r>
       <r>    9.6689    0.0000 </r>
       <r>    9.6689    0.0000 </r>
      </set>
      <set comment="kpoint 7">
       <r>  -37.1871    1.0000 </r>
       <r>  -20.9769    1.0000 </r>
       <r>  -20.2381    1.0000 </r>
       <r>  -18.1847    1.0000 </r>
       <r>  -18.1847    1.0000 </r>
       <r>  -18.1330    1.0000 </r>
       <r>   -3.1165    1.0000 </r>
       <r>   -3.1165    1.0000 </r>
       <r>   -3.0181    1.0000 </r>
       <r>   -1.5564    1.0041 </r>
       <r>   -1.3515    1.0349 </r>
       <r>   -1.3515    1.0349 </r>
       <r>    6.2811    0.0000 </r>
       <r>    7.9385    0.0000 </r>
       <r>    8.0077    0.0000 </r>
       <r>    9.8330    0.0000 </r>
       <r>    9.8899    0.0000 </r>
       <r>    9.8899    0.0000 </r>
      </set>
      <set comment="kpoint 8">
       <r>  -37.1824    1.0000 </r>
       <r>  -21.0172    1.0000 </r>
       <r>  -20.2814    1.0000 </r>
       <r>  -18.1935    1.0000 </r>
       <r>  -18.1865    1.0000 </r>
       <r>  -18.0615    1.0000 </r>
       <r>   -3.0622    1.0000 </r>
       <r>   -3.0532    1.0000 </r>
       <r>   -2.8465    1.0000 </r>
       <r>   -1.8046    1.0000 </r>
       <r>   -1.4060    1.0302 </r>
       <r>   -1.3845    1.0339 </r>
       <r>    6.7084    0.0000 </r>
       <r>    7.9363    0.0000 </r>
       <r>    8.0730    0.0000 </r>
       <r>    9.6741    0.0000 </r>
       <r>    9.8447    0.0000 </r>
       <r>    9.8557    0.0000 </r>
      </set>
      <set comment="kpoint 9">
       <r>  -37.1749    1.0000 </r>
       <r>  -21.0605    1.0000 </r>
       <r>  -20.3719    1.0000 </r>
       <r>  -18.2044    1.0000 </r>
       <r>  -18.1830    1.0000 </r>
       <r>  -17.9523    1.0000 </r>
       <r>   -2.9522    1.0000 </r>
       <r>   -2.9312    1.0000 </r>
       <r>   -2.6093    1.0000 </r>
       <r>   -2.0830    1.0000 </r>
       <r>   -1.5406    1.0055 </r>
       <r>   -1.4827    1.0135 </r>
       <r>    7.3236    0.0000 </r>
       <r>    7.9932    0.0000 </r>
       <r>    8.1420    0.0000 </r>
       <r>    9.4820    0.0000 </r>
       <r>    9.7793    0.0000 </r>
       <r>    9.8227    0.0000 </r>
      </set>
      <set comment="kpoint 10">
       <r>  -37.1671    1.0000 </r>
       <r>  -21.0800    1.0000 </r>
       <r>  -20.4948    1.0000 </r>
       <r>  -18.2140    1.0000 </r>
       <r>  -18.1804    1.0000 </r>
       <r>  -17.8340    1.0000 </r>
       <r>   -2.8077    1.0000 </r>
       <r>   -2.7973    1.0000 </r>
       <r>   -2.3869    1.0000 </r>
       <r>   -2.2964    1.0000 </r>
       <r>   -1.6960    1.0002 </r>
       <r>   -1.6265    1.0010 </r>
       <r>    7.7644    0.0000 </r>
       <r>    8.1922    0.0000 </r>
       <r>    8.2011    0.0000 </r>
       <r>    9.3818    0.0000 </r>
       <r>    9.7136    0.0000 </r>
       <r>    9.8514    0.0000 </r>
      </set>
      <set comment="kpoint 11">
       <r>  -37.1614    1.0000 </r>
       <r>  -21.0707    1.0000 </r>
       <r>  -20.6078    1.0000 </r>
       <r>  -18.2192    1.0000 </r>
       <r>  -18.1800    1.0000 </r>
       <r>  -17.7460    1.0000 </r>
       <r>   -2.7121    1.0000 </r>
       <r>   -2.6549    1.0000 </r>
       <r>   -2.4801    1.0000 </r>
       <r>   -2.1564    1.0000 </r>
       <r>   -1.8092    1.0000 </r>
       <r>   -1.7910    1.0000 </r>
       <r>    7.9254    0.0000 </r>
       <r>    8.2078    0.0000 </r>
       <r>    8.4338    0.0000 </r>
       <r>    9.3587    0.0000 </r>
       <r>    9.6681    0.0000 </r>
       <r>    9.9844    0.0000 </r>
      </set>
      <set comment="kpoint 12">
       <r>  -37.1597    1.0000 </r>
       <r>  -21.0599    1.0000 </r>
       <r>  -20.6515    1.0000 </r>
       <r>  -18.2185    1.0000 </r>
       <r>  -18.1805    1.0000 </r>
       <r>  -17.7199    1.0000 </r>
       <r>   -2.7345    1.0000 </r>
       <r>   -2.5376    1.0000 </r>
       <r>   -2.4875    1.0000 </r>
       <r>   -2.1259    1.0000 </r>
       <r>   -1.9315    1.0000 </r>
       <r>   -1.7830    1.0000 </r>
       <r>    7.9882    0.0000 </r>
       <r>    8.1851    0.0000 </r>
       <r>    8.4949    0.0000 </r>
       <r>    9.3510    0.0000 </r>
       <r>    9.6572    0.0000 </r>
       <r>   10.0568    0.0000 </r>
      </set>
      <set comment="kpoint 13">
       <r>  -37.1624    1.0000 </r>
       <r>  -21.0697    1.0000 </r>
       <r>  -20.5924    1.0000 </r>
       <r>  -18.2120    1.0000 </r>
       <r>  -18.1811    1.0000 </r>
       <r>  -17.7650    1.0000 </r>
       <r>   -2.8217    1.0000 </r>
       <r>   -2.5461    1.0000 </r>
       <r>   -2.3921    1.0000 </r>
       <r>   -2.2484    1.0000 </r>
       <r>   -1.9519    1.0000 </r>
       <r>   -1.6481    1.0006 </r>
       <r>    7.9439    0.0000 </r>
       <r>    8.1318    0.0000 </r>
       <r>    8.4143    0.0000 </r>
       <r>    9.3590    0.0000 </r>
       <r>    9.6851    0.0000 </r>
       <r>    9.9665    0.0000 </r>
      </set>
      <set comment="kpoint 14">
       <r>  -37.1688    1.0000 </r>
       <r>  -21.0733    1.0000 </r>
       <r>  -20.4740    1.0000 </r>
       <r>  -18.2018    1.0000 </r>
       <r>  -18.1820    1.0000 </r>
       <r>  -17.8661    1.0000 </r>
       <r>   -2.9290    1.0000 </r>
       <r>   -2.6904    1.0000 </r>
       <r>   -2.4693    1.0000 </r>
       <r>   -2.1889    1.0000 </r>
       <r>   -1.8313    1.0000 </r>
       <r>   -1.5062    1.0096 </r>
       <r>    7.7175    0.0000 </r>
       <r>    8.0639    0.0000 </r>
       <r>    8.2260    0.0000 </r>
       <r>    9.3913    0.0000 </r>
       <r>    9.7432    0.0000 </r>
       <r>    9.8461    0.0000 </r>
      </set>
      <set comment="kpoint 15">
       <r>  -37.1768    1.0000 </r>
       <r>  -21.0481    1.0000 </r>
       <r>  -20.3538    1.0000 </r>
       <r>  -18.1911    1.0000 </r>
       <r>  -18.1839    1.0000 </r>
       <r>  -17.9877    1.0000 </r>
       <r>   -3.0301    1.0000 </r>
       <r>   -2.8670    1.0000 </r>
       <r>   -2.7153    1.0000 </r>
       <r>   -1.9266    1.0000 </r>
       <r>   -1.6628    1.0004 </r>
       <r>   -1.3951    1.0323 </r>
       <r>    7.1794    0.0000 </r>
       <r>    8.0020    0.0000 </r>
       <r>    8.0971    0.0000 </r>
       <r>    9.5195    0.0000 </r>
       <r>    9.8132    0.0000 </r>
       <r>    9.8289    0.0000 </r>
      </set>
      <set comment="kpoint 16">
       <r>  -37.1838    1.0000 </r>
       <r>  -21.0041    1.0000 </r>
       <r>  -20.2713    1.0000 </r>
       <r>  -18.1855    1.0000 </r>
[...]
       <r>    -0.3579    -0.0000    12.0000 </r>
       <r>    -0.1732    -0.0000    12.0000 </r>
       <r>     0.0115    -0.0000    12.0000 </r>
       <r>     0.1963    -0.0000    12.0000 </r>
       <r>     0.3810     0.0000    12.0000 </r>
       <r>     0.5658     0.0000    12.0000 </r>
       <r>     0.7505     0.0000    12.0000 </r>
       <r>     0.9353     0.0000    12.0000 </r>
       <r>     1.1200     0.0000    12.0000 </r>
       <r>     1.3048     0.0000    12.0000 </r>
       <r>     1.4895     0.0000    12.0000 </r>
       <r>     1.6743     0.0000    12.0000 </r>
       <r>     1.8590     0.0000    12.0000 </r>
       <r>     2.0438     0.0000    12.0000 </r>
       <r>     2.2285     0.0000    12.0000 </r>
       <r>     2.4133     0.0000    12.0000 </r>
       <r>     2.5980     0.0000    12.0000 </r>
       <r>     2.7827     0.0000    12.0000 </r>
       <r>     2.9675     0.0000    12.0000 </r>
       <r>     3.1522     0.0000    12.0000 </r>
       <r>     3.3370     0.0000    12.0000 </r>
       <r>     3.5217     0.0000    12.0000 </r>
       <r>     3.7065     0.0000    12.0000 </r>
       <r>     3.8912     0.0000    12.0000 </r>
       <r>     4.0760     0.0000    12.0000 </r>
       <r>     4.2607    -0.0000    12.0000 </r>
       <r>     4.4455    -0.0000    12.0000 </r>
       <r>     4.6302    -0.0000    12.0000 </r>
       <r>     4.8150    -0.0000    12.0000 </r>
       <r>     4.9997    -0.0000    12.0000 </r>
       <r>     5.1845    -0.0000    12.0000 </r>
       <r>     5.3692    -0.0000    12.0000 </r>
       <r>     5.5539    -0.0000    12.0000 </r>
       <r>     5.7387    -0.0001    12.0000 </r>
       <r>     5.9234    -0.0004    11.9999 </r>
       <r>     6.1082     0.0043    12.0007 </r>
       <r>     6.2929     0.0286    12.0060 </r>
       <r>     6.4777     0.0301    12.0115 </r>
       <r>     6.6624     0.0520    12.0211 </r>
       <r>     6.8472     0.0680    12.0337 </r>
       <r>     7.0319     0.2059    12.0718 </r>
       <r>     7.2167     0.8409    12.2271 </r>
       <r>     7.4014     1.4801    12.5006 </r>
       <r>     7.5862     1.4315    12.7650 </r>
       <r>     7.7709     0.7827    12.9096 </r>
       <r>     7.9557     0.6277    13.0256 </r>
       <r>     8.1404     1.4104    13.2862 </r>
       <r>     8.3251     2.1875    13.6903 </r>
       <r>     8.5099     3.0390    14.2517 </r>
       <r>     8.6946     3.0783    14.8204 </r>
       <r>     8.8794     1.5129    15.0999 </r>
       <r>     9.0641     1.5357    15.3837 </r>
       <r>     9.2489     1.5259    15.6656 </r>
       <r>     9.4336     0.9613    15.8431 </r>
       <r>     9.6184     2.4894    16.3031 </r>
       <r>     9.8031     3.7001    16.9866 </r>
       <r>     9.9879     1.6103    17.2841 </r>
       <r>    10.1726     0.4491    17.3671 </r>
       <r>    10.3574     0.3641    17.4344 </r>
       <r>    10.5421     0.3006    17.4899 </r>
       <r>    10.7269     0.2725    17.5403 </r>
       <r>    10.9116     0.3115    17.5978 </r>
       <r>    11.0963     0.2936    17.6520 </r>
       <r>    11.2811     0.2151    17.6918 </r>
       <r>    11.4658     0.2257    17.7335 </r>
       <r>    11.6506     0.2610    17.7817 </r>
       <r>    11.8353     0.2183    17.8220 </r>
       <r>    12.0201     0.1956    17.8582 </r>
       <r>    12.2048     0.1919    17.8936 </r>
       <r>    12.3896     0.1793    17.9267 </r>
       <r>    12.5743     0.1508    17.9546 </r>
       <r>    12.7591     0.0996    17.9730 </r>
       <r>    12.9438     0.0758    17.9870 </r>
       <r>    13.1286     0.0529    17.9968 </r>
       <r>    13.3133     0.0187    18.0002 </r>
       <r>    13.4981    -0.0007    18.0001 </r>
       <r>    13.6828    -0.0005    18.0000 </r>
       <r>    13.8675    -0.0000    18.0000 </r>
       <r>    14.0523    -0.0000    18.0000 </r>
       <r>    14.2370    -0.0000    18.0000 </r>
       <r>    14.4218    -0.0000    18.0000 </r>
       <r>    14.6065     0.0000    18.0000 </r>
       <r>    14.7913     0.0000    18.0000 </r>
       <r>    14.9760     0.0000    18.0000 </r>
       <r>    15.1608     0.0000    18.0000 </r>
       <r>    15.3455     0.0000    18.0000 </r>
       <r>    15.5303     0.0000    18.0000 </r>
       <r>    15.7150     0.0000    18.0000 </r>
      </set>
      <set comment="spin 2">
       <r>   -39.7090     0.0000     0.0000 </r>
       <r>   -39.5242     0.0000     0.0000 </r>
       <r>   -39.3395     0.0000     0.0000 </r>
       <r>   -39.1547     0.0000     0.0000 </r>
       <r>   -38.9700    -0.0000    -0.0000 </r>
       <r>   -38.7853    -0.0000    -0.0000 </r>
       <r>   -38.6005    -0.0000    -0.0000 </r>
       <r>   -38.4158    -0.0000    -0.0000 </r>
       <r>   -38.2310    -0.0000    -0.0000 </r>
       <r>   -38.0463    -0.0000    -0.0000 </r>
       <r>   -37.8615    -0.0000    -0.0000 </r>
       <r>   -37.6768    -0.0044    -0.0008 </r>
       <r>   -37.4920    -0.1063    -0.0205 </r>
       <r>   -37.3073     0.2719     0.0298 </r>
       <r>   -37.1225     3.3962     0.6572 </r>
       <r>   -36.9378     2.0334     1.0329 </r>
       <r>   -36.7530    -0.1394     1.0071 </r>
       <r>   -36.5683    -0.0379     1.0001 </r>
       <r>   -36.3835    -0.0006     1.0000 </r>
       <r>   -36.1988    -0.0000     1.0000 </r>
       <r>   -36.0141    -0.0000     1.0000 </r>
       <r>   -35.8293    -0.0000     1.0000 </r>
       <r>   -35.6446     0.0000     1.0000 </r>
       <r>   -35.4598     0.0000     1.0000 </r>
       <r>   -35.2751     0.0000     1.0000 </r>
       <r>   -35.0903     0.0000     1.0000 </r>
       <r>   -34.9056     0.0000     1.0000 </r>
       <r>   -34.7208     0.0000     1.0000 </r>
       <r>   -34.5361     0.0000     1.0000 </r>
       <r>   -34.3513     0.0000     1.0000 </r>
       <r>   -34.1666     0.0000     1.0000 </r>
       <r>   -33.9818     0.0000     1.0000 </r>
       <r>   -33.7971     0.0000     1.0000 </r>
       <r>   -33.6123     0.0000     1.0000 </r>
       <r>   -33.4276     0.0000     1.0000 </r>
       <r>   -33.2429     0.0000     1.0000 </r>
       <r>   -33.0581     0.0000     1.0000 </r>
       <r>   -32.8734     0.0000     1.0000 </r>
       <r>   -32.6886     0.0000     1.0000 </r>
       <r>   -32.5039     0.0000     1.0000 </r>
       <r>   -32.3191     0.0000     1.0000 </r>
       <r>   -32.1344     0.0000     1.0000 </r>
       <r>   -31.9496     0.0000     1.0000 </r>
       <r>   -31.7649     0.0000     1.0000 </r>
       <r>   -31.5801     0.0000     1.0000 </r>
       <r>   -31.3954     0.0000     1.0000 </r>
       <r>   -31.2106     0.0000     1.0000 </r>
       <r>   -31.0259     0.0000     1.0000 </r>
       <r>   -30.8411     0.0000     1.0000 </r>
       <r>   -30.6564     0.0000     1.0000 </r>
       <r>   -30.4717     0.0000     1.0000 </r>
       <r>   -30.2869     0.0000     1.0000 </r>
       <r>   -30.1022     0.0000     1.0000 </r>
       <r>   -29.9174     0.0000     1.0000 </r>
       <r>   -29.7327     0.0000     1.0000 </r>
       <r>   -29.5479     0.0000     1.0000 </r>
       <r>   -29.3632     0.0000     1.0000 </r>
       <r>   -29.1784     0.0000     1.0000 </r>
       <r>   -28.9937     0.0000     1.0000 </r>
       <r>   -28.8089     0.0000     1.0000 </r>
       <r>   -28.6242     0.0000     1.0000 </r>
       <r>   -28.4394     0.0000     1.0000 </r>
       <r>   -28.2547     0.0000     1.0000 </r>
       <r>   -28.0699     0.0000     1.0000 </r>
       <r>   -27.8852     0.0000     1.0000 </r>
       <r>   -27.7005     0.0000     1.0000 </r>
       <r>   -27.5157     0.0000     1.0000 </r>
       <r>   -27.3310     0.0000     1.0000 </r>
       <r>   -27.1462     0.0000     1.0000 </r>
       <r>   -26.9615     0.0000     1.0000 </r>
       <r>   -26.7767     0.0000     1.0000 </r>
       <r>   -26.5920     0.0000     1.0000 </r>
       <r>   -26.4072     0.0000     1.0000 </r>
       <r>   -26.2225     0.0000     1.0000 </r>
       <r>   -26.0377     0.0000     1.0000 </r>
       <r>   -25.8530     0.0000     1.0000 </r>
       <r>   -25.6682     0.0000     1.0000 </r>
       <r>   -25.4835     0.0000     1.0000 </r>
       <r>   -25.2987     0.0000     1.0000 </r>
       <r>   -25.1140     0.0000     1.0000 </r>
       <r>   -24.9293     0.0000     1.0000 </r>
       <r>   -24.7445     0.0000     1.0000 </r>
       <r>   -24.5598     0.0000     1.0000 </r>
       <r>   -24.3750     0.0000     1.0000 </r>
       <r>   -24.1903     0.0000     1.0000 </r>
       <r>   -24.0055     0.0000     1.0000 </r>
       <r>   -23.8208     0.0000     1.0000 </r>
       <r>   -23.6360     0.0000     1.0000 </r>
       <r>   -23.4513     0.0000     1.0000 </r>
       <r>   -23.2665     0.0000     1.0000 </r>
       <r>   -23.0818     0.0000     1.0000 </r>
       <r>   -22.8970    -0.0000     1.0000 </r>
       <r>   -22.7123    -0.0000     1.0000 </r>
       <r>   -22.5275    -0.0000     1.0000 </r>
       <r>   -22.3428    -0.0000     1.0000 </r>
       <r>   -22.1581    -0.0000     1.0000 </r>
       <r>   -21.9733    -0.0000     1.0000 </r>
       <r>   -21.7886    -0.0001     1.0000 </r>
       <r>   -21.6038    -0.0082     0.9985 </r>
       <r>   -21.4191    -0.0836     0.9830 </r>
       <r>   -21.2343     0.3728     1.0519 </r>
       <r>   -21.0496     2.8335     1.5754 </r>
       <r>   -20.8648     2.6724     2.0691 </r>
       <r>   -20.6801     1.7136     2.3857 </r>
       <r>   -20.4953     1.9454     2.7451 </r>
       <r>   -20.3106     1.1314     2.9541 </r>
       <r>   -20.1258     0.2757     3.0050 </r>
       <r>   -19.9411    -0.0189     3.0015 </r>
       <r>   -19.7563    -0.0080     3.0000 </r>
       <r>   -19.5716    -0.0003     3.0000 </r>
       <r>   -19.3869    -0.0000     3.0000 </r>
       <r>   -19.2021    -0.0000     3.0000 </r>
       <r>   -19.0174    -0.0000     3.0000 </r>
       <r>   -18.8326    -0.0007     2.9999 </r>
       <r>   -18.6479    -0.0426     2.9920 </r>
       <r>   -18.4631    -0.2317     2.9492 </r>
       <r>   -18.2784     2.2870     3.3717 </r>
       <r>   -18.0936     6.1691     4.5114 </r>
       <r>   -17.9089     3.5485     5.1670 </r>
       <r>   -17.7241     3.0209     5.7251 </r>
       <r>   -17.5394     1.4970     6.0017 </r>
       <r>   -17.3546     0.0332     6.0078 </r>
       <r>   -17.1699    -0.0397     6.0005 </r>
       <r>   -16.9851    -0.0026     6.0000 </r>
       <r>   -16.8004    -0.0000     6.0000 </r>
       <r>   -16.6157    -0.0000     6.0000 </r>
       <r>   -16.4309    -0.0000     6.0000 </r>
       <r>   -16.2462    -0.0000     6.0000 </r>
       <r>   -16.0614     0.0000     6.0000 </r>
       <r>   -15.8767     0.0000     6.0000 </r>
       <r>   -15.6919     0.0000     6.0000 </r>
       <r>   -15.5072     0.0000     6.0000 </r>
       <r>   -15.3224     0.0000     6.0000 </r>
       <r>   -15.1377     0.0000     6.0000 </r>
       <r>   -14.9529     0.0000     6.0000 </r>
       <r>   -14.7682     0.0000     6.0000 </r>
       <r>   -14.5834     0.0000     6.0000 </r>
       <r>   -14.3987     0.0000     6.0000 </r>
       <r>   -14.2139     0.0000     6.0000 </r>
       <r>   -14.0292     0.0000     6.0000 </r>
       <r>   -13.8445     0.0000     6.0000 </r>
       <r>   -13.6597     0.0000     6.0000 </r>
       <r>   -13.4750     0.0000     6.0000 </r>
       <r>   -13.2902     0.0000     6.0000 </r>
       <r>   -13.1055     0.0000     6.0000 </r>
       <r>   -12.9207     0.0000     6.0000 </r>
       <r>   -12.7360     0.0000     6.0000 </r>
       <r>   -12.5512     0.0000     6.0000 </r>
       <r>   -12.3665     0.0000     6.0000 </r>
       <r>   -12.1817     0.0000     6.0000 </r>
       <r>   -11.9970     0.0000     6.0000 </r>
       <r>   -11.8122     0.0000     6.0000 </r>
       <r>   -11.6275     0.0000     6.0000 </r>
       <r>   -11.4427     0.0000     6.0000 </r>
       <r>   -11.2580     0.0000     6.0000 </r>
       <r>   -11.0733     0.0000     6.0000 </r>
       <r>   -10.8885     0.0000     6.0000 </r>
       <r>   -10.7038     0.0000     6.0000 </r>
       <r>   -10.5190     0.0000     6.0000 </r>
       <r>   -10.3343     0.0000     6.0000 </r>
       <r>   -10.1495     0.0000     6.0000 </r>
       <r>    -9.9648     0.0000     6.0000 </r>
       <r>    -9.7800     0.0000     6.0000 </r>
       <r>    -9.5953     0.0000     6.0000 </r>
       <r>    -9.4105     0.0000     6.0000 </r>
       <r>    -9.2258     0.0000     6.0000 </r>
       <r>    -9.0410     0.0000     6.0000 </r>
       <r>    -8.8563     0.0000     6.0000 </r>
       <r>    -8.6715     0.0000     6.0000 </r>
       <r>    -8.4868     0.0000     6.0000 </r>
       <r>    -8.3021     0.0000     6.0000 </r>
       <r>    -8.1173     0.0000     6.0000 </r>
       <r>    -7.9326     0.0000     6.0000 </r>
       <r>    -7.7478     0.0000     6.0000 </r>
       <r>    -7.5631     0.0000     6.0000 </r>
       <r>    -7.3783     0.0000     6.0000 </r>
       <r>    -7.1936     0.0000     6.0000 </r>
       <r>    -7.0088     0.0000     6.0000 </r>
       <r>    -6.8241     0.0000     6.0000 </r>
       <r>    -6.6393     0.0000     6.0000 </r>
       <r>    -6.4546     0.0000     6.0000 </r>
       <r>    -6.2698     0.0000     6.0000 </r>
       <r>    -6.0851     0.0000     6.0000 </r>
       <r>    -5.9003     0.0000     6.0000 </r>
       <r>    -5.7156     0.0000     6.0000 </r>
       <r>    -5.5309     0.0000     6.0000 </r>
       <r>    -5.3461    -0.0000     6.0000 </r>
       <r>    -5.1614    -0.0000     6.0000 </r>
       <r>    -4.9766    -0.0000     6.0000 </r>
       <r>    -4.7919    -0.0000     6.0000 </r>
       <r>    -4.6071    -0.0000     6.0000 </r>
       <r>    -4.4224    -0.0000     6.0000 </r>
       <r>    -4.2376    -0.0000     6.0000 </r>
       <r>    -4.0529    -0.0016     5.9997 </r>
       <r>    -3.8681    -0.0103     5.9978 </r>
       <r>    -3.6834     0.0585     6.0086 </r>
       <r>    -3.4986     0.3401     6.0715 </r>
       <r>    -3.3139     0.6431     6.1903 </r>
       <r>    -3.1291     1.3917     6.4474 </r>
       <r>    -2.9444     3.2573     7.0492 </r>
       <r>    -2.7597     3.8714     7.7644 </r>
       <r>    -2.5749     3.0521     8.3283 </r>
       <r>    -2.3902     2.4417     8.7794 </r>
       <r>    -2.2054     1.7608     9.1047 </r>
       <r>    -2.0207     1.7696     9.4316 </r>
       <r>    -1.8359     2.2969     9.8559 </r>
       <r>    -1.6512     2.6033    10.3369 </r>
       <r>    -1.4664     3.8020    11.0393 </r>
       <r>    -1.2817     3.9952    11.7774 </r>
       <r>    -1.0969     1.2404    12.0065 </r>
       <r>    -0.9122     0.0007    12.0067 </r>
       <r>    -0.7274    -0.0338    12.0004 </r>
       <r>    -0.5427    -0.0023    12.0000 </r>
       <r>    -0.3579    -0.0000    12.0000 </r>
       <r>    -0.1732    -0.0000    12.0000 </r>
       <r>     0.0115    -0.0000    12.0000 </r>
       <r>     0.1963    -0.0000    12.0000 </r>
       <r>     0.3810     0.0000    12.0000 </r>
       <r>     0.5658     0.0000    12.0000 </r>
       <r>     0.7505     0.0000    12.0000 </r>
       <r>     0.9353     0.0000    12.0000 </r>
       <r>     1.1200     0.0000    12.0000 </r>
       <r>     1.3048     0.0000    12.0000 </r>
       <r>     1.4895     0.0000    12.0000 </r>
       <r>     1.6743     0.0000    12.0000 </r>
       <r>     1.8590     0.0000    12.0000 </r>
       <r>     2.0438     0.0000    12.0000 </r>
       <r>     2.2285     0.0000    12.0000 </r>
       <r>     2.4133     0.0000    12.0000 </r>
       <r>     2.5980     0.0000    12.0000 </r>
       <r>     2.7827     0.0000    12.0000 </r>
       <r>     2.9675     0.0000    12.0000 </r>
       <r>     3.1522     0.0000    12.0000 </r>
       <r>     3.3370     0.0000    12.0000 </r>
       <r>     3.5217     0.0000    12.0000 </r>
       <r>     3.7065     0.0000    12.0000 </r>
       <r>     3.8912     0.0000    12.0000 </r>
       <r>     4.0760     0.0000    12.0000 </r>
       <r>     4.2607    -0.0000    12.0000 </r>
       <r>     4.4455    -0.0000    12.0000 </r>
       <r>     4.6302    -0.0000    12.0000 </r>
       <r>     4.8150    -0.0000    12.0000 </r>
       <r>     4.9997    -0.0000    12.0000 </r>
       <r>     5.1845    -0.0000    12.0000 </r>
       <r>     5.3692    -0.0000    12.0000 </r>
       <r>     5.5539    -0.0000    12.0000 </r>
       <r>     5.7387    -0.0001    12.0000 </r>
       <r>     5.9234    -0.0004    11.9999 </r>
       <r>     6.1082     0.0043    12.0007 </r>
       <r>     6.2929     0.0286    12.0060 </r>
       <r>     6.4777     0.0301    12.0115 </r>
       <r>     6.6624     0.0520    12.0211 </r>
       <r>     6.8472     0.0680    12.0337 </r>
       <r>     7.0319     0.2059    12.0718 </r>
       <r>     7.2167     0.8409    12.2271 </r>
       <r>     7.4014     1.4801    12.5006 </r>
       <r>     7.5862     1.4315    12.7650 </r>
       <r>     7.7709     0.7827    12.9096 </r>
       <r>     7.9557     0.6277    13.0256 </r>
       <r>     8.1404     1.4104    13.2862 </r>
       <r>     8.3251     2.1875    13.6903 </r>
       <r>     8.5099     3.0390    14.2517 </r>
       <r>     8.6946     3.0783    14.8204 </r>
       <r>     8.8794     1.5129    15.0999 </r>
       <r>     9.0641     1.5357    15.3837 </r>
       <r>     9.2489     1.5259    15.6656 </r>
       <r>     9.4336     0.9613    15.8431 </r>
       <r>     9.6184     2.4894    16.3031 </r>
       <r>     9.8031     3.7001    16.9867 </r>
       <r>     9.9879     1.6103    17.2841 </r>
       <r>    10.1726     0.4491    17.3671 </r>
       <r>    10.3574     0.3641    17.4344 </r>
       <r>    10.5421     0.3006    17.4899 </r>
       <r>    10.7269     0.2725    17.5403 </r>
       <r>    10.9116     0.3115    17.5978 </r>
       <r>    11.0963     0.2936    17.6520 </r>
       <r>    11.2811     0.2151    17.6918 </r>
       <r>    11.4658     0.2258    17.7335 </r>
       <r>    11.6506     0.2610    17.7817 </r>
       <r>    11.8353     0.2183    17.8220 </r>
       <r>    12.0201     0.1956    17.8582 </r>
       <r>    12.2048     0.1919    17.8936 </r>
       <r>    12.3896     0.1793    17.9267 </r>
       <r>    12.5743     0.1508    17.9546 </r>
       <r>    12.7591     0.0996    17.9730 </r>
       <r>    12.9438     0.0758    17.9870 </r>
       <r>    13.1286     0.0529    17.9968 </r>
       <r>    13.3133     0.0187    18.0002 </r>
       <r>    13.4981    -0.0007    18.0001 </r>
       <r>    13.6828    -0.0005    18.0000 </r>
       <r>    13.8675    -0.0000    18.0000 </r>
       <r>    14.0523    -0.0000    18.0000 </r>
       <r>    14.2370    -0.0000    18.0000 </r>
       <r>    14.4218    -0.0000    18.0000 </r>
       <r>    14.6065     0.0000    18.0000 </r>
       <r>    14.7913     0.0000    18.0000 </r>
       <r>    14.9760     0.0000    18.0000 </r>
       <r>    15.1608     0.0000    18.0000 </r>
       <r>    15.3455     0.0000    18.0000 </r>
       <r>    15.5303     0.0000    18.0000 </r>
       <r>    15.7150     0.0000    18.0000 </r>
      </set>
     </set>
    </array>
   </total>
  </dos>
 </calculation>
 <structure name="finalpos" >
  <crystal>
   <varray name="basis" >
    <v>       3.89497339      -0.00000000      -0.00000000 </v>
    <v>      -1.94748670       3.37314591       0.00000000 </v>
    <v>      -0.00000000      -2.24876394       3.18023246 </v>
   </varray>
   <i name="volume">     41.78289124 </i>
   <varray name="rec_basis" >
    <v>       0.25674116       0.14822958       0.10481414 </v>
    <v>       0.00000000       0.29645916       0.20962828 </v>
    <v>       0.00000000      -0.00000000       0.31444242 </v>
   </varray>
  </crystal>
  <varray name="positions" >
   <v>       0.99999888       0.99999888       0.99999888 </v>
   <v>       0.74999888       0.49999888       0.24999888 </v>
   <v>       0.24999888       0.49999888       0.74999888 </v>
  </varray>
 </structure>
</modeling>
